
     Program PWSCF v.6.5 starts on 28Apr2020 at 16:30: 2 

     This program is part of the open-source Quantum ESPRESSO suite
     for quantum simulation of materials; please cite
         "P. Giannozzi et al., J. Phys.:Condens. Matter 21 395502 (2009);
         "P. Giannozzi et al., J. Phys.:Condens. Matter 29 465901 (2017);
          URL http://www.quantum-espresso.org", 
     in publications or presentations arising from this work. More details at
     http://www.quantum-espresso.org/quote

     Parallel version (MPI), running on     1 processors

     MPI processes distributed on     1 nodes
     Waiting for input...
     Reading input from standard input
Warning: card &IONS ignored
Warning: card / ignored
Warning: card &CELL ignored
Warning: card / ignored

     Current dimensions of program PWSCF are:
     Max number of different atomic species (ntypx) = 10
     Max number of k-points (npk) =  40000
     Max angular momentum in pseudopotentials (lmaxx) =  3

     Atomic positions and unit cell read from directory:
     ./CuO.save/                                                                                                                                                                                                                                                     
 

     Subspace diagonalization in iterative solution of the eigenvalue problem:
     a serial algorithm will be used

     Message from routine setup:
     using ibrav=0 with symmetry is DISCOURAGED, use correct ibrav instead
 
     G-vector sticks info
     --------------------
     sticks:   dense  smooth     PW     G-vecs:    dense   smooth      PW
     Sum         361     361    125                 9325     9325    1827
 


     bravais-lattice index     =            0
     lattice parameter (alat)  =       5.4811  a.u.
     unit-cell volume          =     273.5769 (a.u.)^3
     number of atoms/cell      =            4
     number of atomic types    =            3
     number of electrons       =        50.00
     number of Kohn-Sham states=           30
     kinetic-energy cutoff     =      40.0000  Ry
     charge density cutoff     =     160.0000  Ry
     Exchange-correlation= SLA  PW   PBE  PBE
                           (   1   4   3   4   0   0   0)

     celldm(1)=   5.481121  celldm(2)=   0.000000  celldm(3)=   0.000000
     celldm(4)=   0.000000  celldm(5)=   0.000000  celldm(6)=   0.000000

     crystal axes: (cart. coord. in units of alat)
               a(1) = (   0.807400  -0.590005   0.000000 )  
               a(2) = (   0.807400   0.590005   0.000000 )  
               a(3) = (  -0.293064   0.000000   1.743802 )  

     reciprocal axes: (cart. coord. in units 2 pi/alat)
               b(1) = (  0.619272 -0.847451  0.104075 )  
               b(2) = (  0.619272  0.847451  0.104075 )  
               b(3) = (  0.000000  0.000000  0.573460 )  


     PseudoPot. # 1 for Cu read from file:
     ./cu_pbe_v1.2.uspp.F.UPF
     MD5 check sum: 6e991ff952a84172a2a52a1c1e996048
     Pseudo is Ultrasoft + core correction, Zval = 19.0
     Generated by new atomic code, or converted to UPF format
     Using radial grid of  867 points,  6 beta functions with: 
                l(1) =   0
                l(2) =   0
                l(3) =   1
                l(4) =   1
                l(5) =   2
                l(6) =   2
     Q(r) pseudized with  8 coefficients,  rinner =    1.150   1.150   1.150
                                                       1.150   1.150

     PseudoPot. # 2 for Cu read from file:
     ./cu_pbe_v1.2.uspp.F.UPF
     MD5 check sum: 6e991ff952a84172a2a52a1c1e996048
     Pseudo is Ultrasoft + core correction, Zval = 19.0
     Generated by new atomic code, or converted to UPF format
     Using radial grid of  867 points,  6 beta functions with: 
                l(1) =   0
                l(2) =   0
                l(3) =   1
                l(4) =   1
                l(5) =   2
                l(6) =   2
     Q(r) pseudized with  8 coefficients,  rinner =    1.150   1.150   1.150
                                                       1.150   1.150

     PseudoPot. # 3 for O  read from file:
     ./o_pbe_v1.2.uspp.F.UPF
     MD5 check sum: 734c27235a0248c51dbae37a1fbe46ec
     Pseudo is Ultrasoft + core correction, Zval =  6.0
     Generated by new atomic code, or converted to UPF format
     Using radial grid of  737 points,  5 beta functions with: 
                l(1) =   0
                l(2) =   0
                l(3) =   1
                l(4) =   1
                l(5) =   2
     Q(r) pseudized with  8 coefficients,  rinner =    0.900   0.900   0.900
                                                       0.900   0.900

     atomic species   valence    mass     pseudopotential
        Cu            19.00    63.54600     Cu( 1.00)
        Cu1           19.00    63.54600     Cu( 1.00)
        O              6.00    15.99900     O ( 1.00)

     Starting magnetic structure 
     atomic species   magnetization
        Cu           1.000
        Cu1         -1.000
        O            0.000

      2 Sym. Ops., with inversion, found


                                    s                        frac. trans.

      isym =  1     identity                                     

 cryst.   s( 1) = (     1          0          0      )
                  (     0          1          0      )
                  (     0          0          1      )

 cart.    s( 1) = (  1.0000000  0.0000000  0.0000000 )
                  (  0.0000000  1.0000000  0.0000000 )
                  (  0.0000000  0.0000000  1.0000000 )


      isym =  2     inversion                                    

 cryst.   s( 2) = (    -1          0          0      )
                  (     0         -1          0      )
                  (     0          0         -1      )

 cart.    s( 2) = ( -1.0000000  0.0000000  0.0000000 )
                  (  0.0000000 -1.0000000  0.0000000 )
                  (  0.0000000  0.0000000 -1.0000000 )


   Cartesian axes

     site n.     atom                  positions (alat units)
         1           Cu  tau(   1) = (   0.4036998   0.2950025   0.0000000  )
         2           Cu1 tau(   2) = (   0.2571678  -0.2950025   0.8719008  )
         3           O   tau(   3) = (   0.7341337  -0.0962888   0.4359504  )
         4           O   tau(   4) = (   0.5876017   0.0962888   1.3078513  )

   Crystallographic axes

     site n.     atom                  positions (cryst. coord.)
         1           Cu  tau(   1) = ( -0.0000000  0.5000000  0.0000000  )
         2           Cu1 tau(   2) = (  0.5000000 -0.0000000  0.5000000  )
         3           O   tau(   3) = (  0.5816000  0.4184000  0.2500000  )
         4           O   tau(   4) = (  0.4184000  0.5816000  0.7500000  )

     number of k points=   402  Gaussian smearing, width (Ry)=  0.0050
                       cart. coord. in units 2pi/alat
        k(    1) = (   0.0000000   0.0000000   0.0000000), wk =   0.0000404
        k(    2) = (   0.0000000   0.0000000   0.0238942), wk =   0.0000808
        k(    3) = (   0.0000000   0.0000000   0.0477883), wk =   0.0001212
        k(    4) = (   0.0000000   0.0000000   0.0716825), wk =   0.0001616
        k(    5) = (   0.0000000   0.0000000   0.0955766), wk =   0.0002020
        k(    6) = (   0.0000000   0.0000000   0.1194708), wk =   0.0002424
        k(    7) = (   0.0000000   0.0000000   0.1433649), wk =   0.0002828
        k(    8) = (   0.0000000   0.0000000   0.1672591), wk =   0.0003232
        k(    9) = (   0.0000000   0.0000000   0.1911532), wk =   0.0003636
        k(   10) = (   0.0000000   0.0000000   0.2150474), wk =   0.0004040
        k(   11) = (   0.0000000   0.0000000   0.2389415), wk =   0.0004444
        k(   12) = (   0.0000000   0.0000000   0.2628357), wk =   0.0004848
        k(   13) = (   0.0000000   0.0000000   0.2867299), wk =   0.0005252
        k(   14) = (   0.0134624   0.0184228   0.2889924), wk =   0.0002828
        k(   15) = (   0.0269249   0.0368457   0.2912549), wk =   0.0003030
        k(   16) = (   0.0403873   0.0552685   0.2935174), wk =   0.0003232
        k(   17) = (   0.0538497   0.0736914   0.2957799), wk =   0.0003434
        k(   18) = (   0.0673122   0.0921142   0.2980424), wk =   0.0003636
        k(   19) = (   0.0807746   0.1105370   0.3003049), wk =   0.0003838
        k(   20) = (   0.0942370   0.1289599   0.3025674), wk =   0.0004040
        k(   21) = (   0.1076995   0.1473827   0.3048299), wk =   0.0004242
        k(   22) = (   0.1211619   0.1658055   0.3070924), wk =   0.0004444
        k(   23) = (   0.1346243   0.1842284   0.3093549), wk =   0.0004646
        k(   24) = (   0.1480868   0.2026512   0.3116174), wk =   0.0004848
        k(   25) = (   0.1615492   0.2210741   0.3138799), wk =   0.0005050
        k(   26) = (   0.1750117   0.2394969   0.3161424), wk =   0.0005252
        k(   27) = (   0.1884741   0.2579197   0.3184049), wk =   0.0005454
        k(   28) = (   0.2019365   0.2763426   0.3206674), wk =   0.0005656
        k(   29) = (   0.2153990   0.2947654   0.3229299), wk =   0.0005858
        k(   30) = (   0.2288614   0.3131883   0.3251924), wk =   0.0006060
        k(   31) = (   0.2423238   0.3316111   0.3274549), wk =   0.0006262
        k(   32) = (   0.2557863   0.3500339   0.3297174), wk =   0.0006464
        k(   33) = (   0.2692487   0.3684568   0.3319799), wk =   0.0006666
        k(   34) = (   0.2827111   0.3868796   0.3342424), wk =   0.0006868
        k(   35) = (   0.2961736   0.4053024   0.3365049), wk =   0.0007070
        k(   36) = (   0.3096360   0.4237253   0.3387674), wk =   0.0007272
        k(   37) = (   0.3096360   0.4237253   0.3148732), wk =   0.0007474
        k(   38) = (   0.3096360   0.4237253   0.2909791), wk =   0.0007676
        k(   39) = (   0.3096360   0.4237253   0.2670849), wk =   0.0007878
        k(   40) = (   0.3096360   0.4237253   0.2431908), wk =   0.0008080
        k(   41) = (   0.3096360   0.4237253   0.2192966), wk =   0.0008282
        k(   42) = (   0.3096360   0.4237253   0.1954025), wk =   0.0008484
        k(   43) = (   0.3096360   0.4237253   0.1715083), wk =   0.0008686
        k(   44) = (   0.3096360   0.4237253   0.1476142), wk =   0.0008888
        k(   45) = (   0.3096360   0.4237253   0.1237200), wk =   0.0009090
        k(   46) = (   0.3096360   0.4237253   0.0998259), wk =   0.0009292
        k(   47) = (   0.3096360   0.4237253   0.0759317), wk =   0.0009494
        k(   48) = (   0.3096360   0.4237253   0.0520375), wk =   0.0009696
        k(   49) = (   0.2961736   0.4053024   0.0497750), wk =   0.0009898
        k(   50) = (   0.2827111   0.3868796   0.0475125), wk =   0.0010100
        k(   51) = (   0.2692487   0.3684568   0.0452500), wk =   0.0010302
        k(   52) = (   0.2557863   0.3500339   0.0429875), wk =   0.0010504
        k(   53) = (   0.2423238   0.3316111   0.0407250), wk =   0.0010706
        k(   54) = (   0.2288614   0.3131883   0.0384625), wk =   0.0010908
        k(   55) = (   0.2153990   0.2947654   0.0362000), wk =   0.0011110
        k(   56) = (   0.2019365   0.2763426   0.0339375), wk =   0.0011312
        k(   57) = (   0.1884741   0.2579197   0.0316750), wk =   0.0011514
        k(   58) = (   0.1750117   0.2394969   0.0294125), wk =   0.0011716
        k(   59) = (   0.1615492   0.2210741   0.0271500), wk =   0.0011918
        k(   60) = (   0.1480868   0.2026512   0.0248875), wk =   0.0012120
        k(   61) = (   0.1346243   0.1842284   0.0226250), wk =   0.0012322
        k(   62) = (   0.1211619   0.1658055   0.0203625), wk =   0.0012524
        k(   63) = (   0.1076995   0.1473827   0.0181000), wk =   0.0012726
        k(   64) = (   0.0942370   0.1289599   0.0158375), wk =   0.0012928
        k(   65) = (   0.0807746   0.1105370   0.0135750), wk =   0.0013130
        k(   66) = (   0.0673122   0.0921142   0.0113125), wk =   0.0013332
        k(   67) = (   0.0538497   0.0736914   0.0090500), wk =   0.0013534
        k(   68) = (   0.0403873   0.0552685   0.0067875), wk =   0.0013736
        k(   69) = (   0.0269249   0.0368457   0.0045250), wk =   0.0013938
        k(   70) = (   0.0134624   0.0184228   0.0022625), wk =   0.0014140
        k(   71) = (   0.0000000   0.0000000   0.0000000), wk =   0.0028683
        k(   72) = (  -0.0134624   0.0184228  -0.0022625), wk =   0.0014544
        k(   73) = (  -0.0269249   0.0368457  -0.0045250), wk =   0.0014746
        k(   74) = (  -0.0403873   0.0552685  -0.0067875), wk =   0.0014948
        k(   75) = (  -0.0538497   0.0736914  -0.0090500), wk =   0.0015150
        k(   76) = (  -0.0673122   0.0921142  -0.0113125), wk =   0.0015352
        k(   77) = (  -0.0807746   0.1105370  -0.0135750), wk =   0.0015554
        k(   78) = (  -0.0942370   0.1289599  -0.0158375), wk =   0.0015756
        k(   79) = (  -0.1076995   0.1473827  -0.0181000), wk =   0.0015958
        k(   80) = (  -0.1211619   0.1658055  -0.0203625), wk =   0.0016160
        k(   81) = (  -0.1346243   0.1842284  -0.0226250), wk =   0.0016362
        k(   82) = (  -0.1480868   0.2026512  -0.0248875), wk =   0.0016564
        k(   83) = (  -0.1615492   0.2210741  -0.0271500), wk =   0.0016766
        k(   84) = (  -0.1750117   0.2394969  -0.0294125), wk =   0.0016968
        k(   85) = (  -0.1884741   0.2579197  -0.0316750), wk =   0.0017170
        k(   86) = (  -0.2019365   0.2763426  -0.0339375), wk =   0.0017372
        k(   87) = (  -0.2153990   0.2947654  -0.0362000), wk =   0.0017574
        k(   88) = (  -0.2288614   0.3131883  -0.0384625), wk =   0.0017776
        k(   89) = (  -0.2423238   0.3316111  -0.0407250), wk =   0.0017978
        k(   90) = (  -0.2557863   0.3500339  -0.0429875), wk =   0.0018180
        k(   91) = (  -0.2692487   0.3684568  -0.0452500), wk =   0.0018382
        k(   92) = (  -0.2827111   0.3868796  -0.0475125), wk =   0.0018584
        k(   93) = (  -0.2961736   0.4053024  -0.0497750), wk =   0.0018786
        k(   94) = (  -0.3096360   0.4237253  -0.0520375), wk =   0.0018988
        k(   95) = (  -0.3096360   0.4237253  -0.0281434), wk =   0.0019190
        k(   96) = (  -0.3096360   0.4237253  -0.0042492), wk =   0.0019392
        k(   97) = (  -0.3096360   0.4237253   0.0196449), wk =   0.0019594
        k(   98) = (  -0.3096360   0.4237253   0.0435391), wk =   0.0019796
        k(   99) = (  -0.3096360   0.4237253   0.0674332), wk =   0.0019998
        k(  100) = (  -0.3096360   0.4237253   0.0913274), wk =   0.0020200
        k(  101) = (  -0.3096360   0.4237253   0.1152215), wk =   0.0020402
        k(  102) = (  -0.3096360   0.4237253   0.1391157), wk =   0.0020604
        k(  103) = (  -0.3096360   0.4237253   0.1630098), wk =   0.0020806
        k(  104) = (  -0.3096360   0.4237253   0.1869040), wk =   0.0021008
        k(  105) = (  -0.3096360   0.4237253   0.2107982), wk =   0.0021210
        k(  106) = (  -0.3096360   0.4237253   0.2346923), wk =   0.0021412
        k(  107) = (  -0.2875191   0.4237253   0.2281689), wk =   0.0021614
        k(  108) = (  -0.2654023   0.4237253   0.2216455), wk =   0.0021816
        k(  109) = (  -0.2432854   0.4237253   0.2151222), wk =   0.0022018
        k(  110) = (  -0.2211686   0.4237253   0.2085988), wk =   0.0022220
        k(  111) = (  -0.1990517   0.4237253   0.2020754), wk =   0.0022422
        k(  112) = (  -0.1769349   0.4237253   0.1955520), wk =   0.0022624
        k(  113) = (  -0.1548180   0.4237253   0.1890286), wk =   0.0022826
        k(  114) = (  -0.1327011   0.4237253   0.1825052), wk =   0.0023028
        k(  115) = (  -0.1105843   0.4237253   0.1759818), wk =   0.0023230
        k(  116) = (  -0.0884674   0.4237253   0.1694585), wk =   0.0023432
        k(  117) = (  -0.0663506   0.4237253   0.1629351), wk =   0.0023633
        k(  118) = (  -0.0442337   0.4237253   0.1564117), wk =   0.0023835
        k(  119) = (  -0.0221169   0.4237253   0.1498883), wk =   0.0024037
        k(  120) = (   0.0000000   0.4237253   0.1433649), wk =   0.0024239
        k(  121) = (   0.0221169   0.4237253   0.1368415), wk =   0.0024441
        k(  122) = (   0.0442337   0.4237253   0.1303182), wk =   0.0024643
        k(  123) = (   0.0663506   0.4237253   0.1237948), wk =   0.0024845
        k(  124) = (   0.0884674   0.4237253   0.1172714), wk =   0.0025047
        k(  125) = (   0.1105843   0.4237253   0.1107480), wk =   0.0025249
        k(  126) = (   0.1327011   0.4237253   0.1042246), wk =   0.0025451
        k(  127) = (   0.1548180   0.4237253   0.0977012), wk =   0.0025653
        k(  128) = (   0.1769349   0.4237253   0.0911778), wk =   0.0025855
        k(  129) = (   0.1990517   0.4237253   0.0846545), wk =   0.0026057
        k(  130) = (   0.2211686   0.4237253   0.0781311), wk =   0.0026259
        k(  131) = (   0.2432854   0.4237253   0.0716077), wk =   0.0026461
        k(  132) = (   0.2654023   0.4237253   0.0650843), wk =   0.0026663
        k(  133) = (   0.2875191   0.4237253   0.0585609), wk =   0.0026865
        k(  134) = (   0.3096360   0.4237253   0.0520375), wk =   0.0027067
        k(  135) = (   0.3230984   0.4053024   0.0543000), wk =   0.0027269
        k(  136) = (   0.3365609   0.3868796   0.0565625), wk =   0.0027471
        k(  137) = (   0.3500233   0.3684568   0.0588250), wk =   0.0027673
        k(  138) = (   0.3634857   0.3500339   0.0610876), wk =   0.0027875
        k(  139) = (   0.3769482   0.3316111   0.0633501), wk =   0.0028077
        k(  140) = (   0.3904106   0.3131883   0.0656126), wk =   0.0028279
        k(  141) = (   0.4038730   0.2947654   0.0678751), wk =   0.0028481
        k(  142) = (   0.4173355   0.2763426   0.0701376), wk =   0.0028683
        k(  143) = (   0.4307979   0.2579197   0.0724001), wk =   0.0028885
        k(  144) = (   0.4442604   0.2394969   0.0746626), wk =   0.0029087
        k(  145) = (   0.4577228   0.2210741   0.0769251), wk =   0.0029289
        k(  146) = (   0.4711852   0.2026512   0.0791876), wk =   0.0029491
        k(  147) = (   0.4846477   0.1842284   0.0814501), wk =   0.0029693
        k(  148) = (   0.4981101   0.1658055   0.0837126), wk =   0.0029895
        k(  149) = (   0.5115725   0.1473827   0.0859751), wk =   0.0030097
        k(  150) = (   0.5250350   0.1289599   0.0882376), wk =   0.0030299
        k(  151) = (   0.5384974   0.1105370   0.0905001), wk =   0.0030501
        k(  152) = (   0.5519598   0.0921142   0.0927626), wk =   0.0030703
        k(  153) = (   0.5654223   0.0736914   0.0950251), wk =   0.0030905
        k(  154) = (   0.5788847   0.0552685   0.0972876), wk =   0.0031107
        k(  155) = (   0.5923471   0.0368457   0.0995501), wk =   0.0031309
        k(  156) = (   0.6058096   0.0184228   0.1018126), wk =   0.0031511
        k(  157) = (   0.6192720   0.0000000   0.1040751), wk =   0.0063427
        k(  158) = (   0.5963360   0.0000000   0.1002205), wk =   0.0063831
        k(  159) = (   0.5734000   0.0000000   0.0963658), wk =   0.0064235
        k(  160) = (   0.5504640   0.0000000   0.0925112), wk =   0.0064639
        k(  161) = (   0.5275280   0.0000000   0.0886566), wk =   0.0065043
        k(  162) = (   0.5045920   0.0000000   0.0848019), wk =   0.0065447
        k(  163) = (   0.4816560   0.0000000   0.0809473), wk =   0.0065851
        k(  164) = (   0.4587200   0.0000000   0.0770927), wk =   0.0066255
        k(  165) = (   0.4357840   0.0000000   0.0732380), wk =   0.0066659
        k(  166) = (   0.4128480   0.0000000   0.0693834), wk =   0.0067063
        k(  167) = (   0.3899120   0.0000000   0.0655288), wk =   0.0067467
        k(  168) = (   0.3669760   0.0000000   0.0616741), wk =   0.0067871
        k(  169) = (   0.3440400   0.0000000   0.0578195), wk =   0.0068275
        k(  170) = (   0.3211040   0.0000000   0.0539649), wk =   0.0068679
        k(  171) = (   0.2981680   0.0000000   0.0501102), wk =   0.0069083
        k(  172) = (   0.2752320   0.0000000   0.0462556), wk =   0.0069487
        k(  173) = (   0.2522960   0.0000000   0.0424010), wk =   0.0069891
        k(  174) = (   0.2293600   0.0000000   0.0385463), wk =   0.0070295
        k(  175) = (   0.2064240   0.0000000   0.0346917), wk =   0.0070699
        k(  176) = (   0.1834880   0.0000000   0.0308371), wk =   0.0071102
        k(  177) = (   0.1605520   0.0000000   0.0269824), wk =   0.0071506
        k(  178) = (   0.1376160   0.0000000   0.0231278), wk =   0.0071910
        k(  179) = (   0.1146800   0.0000000   0.0192732), wk =   0.0072314
        k(  180) = (   0.0917440   0.0000000   0.0154185), wk =   0.0072718
        k(  181) = (   0.0688080   0.0000000   0.0115639), wk =   0.0073122
        k(  182) = (   0.0458720   0.0000000   0.0077093), wk =   0.0073526
        k(  183) = (   0.0229360   0.0000000   0.0038546), wk =   0.0073930
        k(  184) = (   0.0000000   0.0000000   0.0000000), wk =   0.0074334
        k(  185) = (   0.0000000   0.0217295   0.0073520), wk =   0.0037369
        k(  186) = (   0.0000000   0.0434590   0.0147041), wk =   0.0037571
        k(  187) = (   0.0000000   0.0651885   0.0220561), wk =   0.0037773
        k(  188) = (   0.0000000   0.0869180   0.0294082), wk =   0.0037975
        k(  189) = (   0.0000000   0.1086475   0.0367602), wk =   0.0038177
        k(  190) = (   0.0000000   0.1303770   0.0441123), wk =   0.0038379
        k(  191) = (   0.0000000   0.1521065   0.0514643), wk =   0.0038581
        k(  192) = (   0.0000000   0.1738360   0.0588164), wk =   0.0038783
        k(  193) = (   0.0000000   0.1955655   0.0661684), wk =   0.0038985
        k(  194) = (   0.0000000   0.2172950   0.0735205), wk =   0.0039187
        k(  195) = (   0.0000000   0.2390245   0.0808725), wk =   0.0039389
        k(  196) = (   0.0000000   0.2607540   0.0882246), wk =   0.0039591
        k(  197) = (   0.0000000   0.2824835   0.0955766), wk =   0.0039793
        k(  198) = (   0.0000000   0.3042130   0.1029287), wk =   0.0039995
        k(  199) = (   0.0000000   0.3259425   0.1102807), wk =   0.0040197
        k(  200) = (   0.0000000   0.3476720   0.1176328), wk =   0.0040399
        k(  201) = (   0.0000000   0.3694015   0.1249848), wk =   0.0040601
        k(  202) = (   0.0000000   0.3911310   0.1323369), wk =   0.0040803
        k(  203) = (   0.0000000   0.4128605   0.1396889), wk =   0.0041005
        k(  204) = (   0.0000000   0.4345900   0.1470409), wk =   0.0041207
        k(  205) = (   0.0000000   0.4563195   0.1543930), wk =   0.0041409
        k(  206) = (   0.0000000   0.4780490   0.1617450), wk =   0.0041611
        k(  207) = (   0.0000000   0.4997785   0.1690971), wk =   0.0041813
        k(  208) = (   0.0000000   0.5215080   0.1764491), wk =   0.0042015
        k(  209) = (   0.0000000   0.5432375   0.1838012), wk =   0.0042217
        k(  210) = (   0.0000000   0.5649670   0.1911532), wk =   0.0042419
        k(  211) = (   0.0000000   0.5866965   0.1985053), wk =   0.0042621
        k(  212) = (   0.0000000   0.6084260   0.2058573), wk =   0.0042823
        k(  213) = (   0.0000000   0.6301555   0.2132094), wk =   0.0043025
        k(  214) = (   0.0000000   0.6518850   0.2205614), wk =   0.0043227
        k(  215) = (   0.0000000   0.6736145   0.2279135), wk =   0.0043429
        k(  216) = (   0.0000000   0.6953440   0.2352655), wk =   0.0043631
        k(  217) = (   0.0000000   0.7170736   0.2426176), wk =   0.0043833
        k(  218) = (   0.0000000   0.7388031   0.2499696), wk =   0.0044035
        k(  219) = (   0.0000000   0.7605326   0.2573217), wk =   0.0044237
        k(  220) = (   0.0000000   0.7822621   0.2646737), wk =   0.0044439
        k(  221) = (   0.0000000   0.8039916   0.2720258), wk =   0.0044641
        k(  222) = (   0.0000000   0.8257211   0.2793778), wk =   0.0044843
        k(  223) = (  -0.0134624   0.0184228  -0.2889924), wk =   0.0002828
        k(  224) = (  -0.0269249   0.0368457  -0.2912549), wk =   0.0003030
        k(  225) = (  -0.0403873   0.0552685  -0.2935174), wk =   0.0003232
        k(  226) = (  -0.0538497   0.0736914  -0.2957799), wk =   0.0003434
        k(  227) = (  -0.0673122   0.0921142  -0.2980424), wk =   0.0003636
        k(  228) = (  -0.0807746   0.1105370  -0.3003049), wk =   0.0003838
        k(  229) = (  -0.0942370   0.1289599  -0.3025674), wk =   0.0004040
        k(  230) = (  -0.1076995   0.1473827  -0.3048299), wk =   0.0004242
        k(  231) = (  -0.1211619   0.1658055  -0.3070924), wk =   0.0004444
        k(  232) = (  -0.1346243   0.1842284  -0.3093549), wk =   0.0004646
        k(  233) = (  -0.1480868   0.2026512  -0.3116174), wk =   0.0004848
        k(  234) = (  -0.1615492   0.2210741  -0.3138799), wk =   0.0005050
        k(  235) = (  -0.1750117   0.2394969  -0.3161424), wk =   0.0005252
        k(  236) = (  -0.1884741   0.2579197  -0.3184049), wk =   0.0005454
        k(  237) = (  -0.2019365   0.2763426  -0.3206674), wk =   0.0005656
        k(  238) = (  -0.2153990   0.2947654  -0.3229299), wk =   0.0005858
        k(  239) = (  -0.2288614   0.3131883  -0.3251924), wk =   0.0006060
        k(  240) = (  -0.2423238   0.3316111  -0.3274549), wk =   0.0006262
        k(  241) = (  -0.2557863   0.3500339  -0.3297174), wk =   0.0006464
        k(  242) = (  -0.2692487   0.3684568  -0.3319799), wk =   0.0006666
        k(  243) = (  -0.2827111   0.3868796  -0.3342424), wk =   0.0006868
        k(  244) = (  -0.2961736   0.4053024  -0.3365049), wk =   0.0007070
        k(  245) = (  -0.3096360   0.4237253  -0.3387674), wk =   0.0007272
        k(  246) = (  -0.3096360   0.4237253  -0.3148732), wk =   0.0007474
        k(  247) = (  -0.3096360   0.4237253  -0.2909791), wk =   0.0007676
        k(  248) = (  -0.3096360   0.4237253  -0.2670849), wk =   0.0007878
        k(  249) = (  -0.3096360   0.4237253  -0.2431908), wk =   0.0008080
        k(  250) = (  -0.3096360   0.4237253  -0.2192966), wk =   0.0008282
        k(  251) = (  -0.3096360   0.4237253  -0.1954025), wk =   0.0008484
        k(  252) = (  -0.3096360   0.4237253  -0.1715083), wk =   0.0008686
        k(  253) = (  -0.3096360   0.4237253  -0.1476142), wk =   0.0008888
        k(  254) = (  -0.3096360   0.4237253  -0.1237200), wk =   0.0009090
        k(  255) = (  -0.3096360   0.4237253  -0.0998259), wk =   0.0009292
        k(  256) = (  -0.3096360   0.4237253  -0.0759317), wk =   0.0009494
        k(  257) = (  -0.3096360   0.4237253  -0.0520375), wk =   0.0009696
        k(  258) = (  -0.2961736   0.4053024  -0.0497750), wk =   0.0009898
        k(  259) = (  -0.2827111   0.3868796  -0.0475125), wk =   0.0010100
        k(  260) = (  -0.2692487   0.3684568  -0.0452500), wk =   0.0010302
        k(  261) = (  -0.2557863   0.3500339  -0.0429875), wk =   0.0010504
        k(  262) = (  -0.2423238   0.3316111  -0.0407250), wk =   0.0010706
        k(  263) = (  -0.2288614   0.3131883  -0.0384625), wk =   0.0010908
        k(  264) = (  -0.2153990   0.2947654  -0.0362000), wk =   0.0011110
        k(  265) = (  -0.2019365   0.2763426  -0.0339375), wk =   0.0011312
        k(  266) = (  -0.1884741   0.2579197  -0.0316750), wk =   0.0011514
        k(  267) = (  -0.1750117   0.2394969  -0.0294125), wk =   0.0011716
        k(  268) = (  -0.1615492   0.2210741  -0.0271500), wk =   0.0011918
        k(  269) = (  -0.1480868   0.2026512  -0.0248875), wk =   0.0012120
        k(  270) = (  -0.1346243   0.1842284  -0.0226250), wk =   0.0012322
        k(  271) = (  -0.1211619   0.1658055  -0.0203625), wk =   0.0012524
        k(  272) = (  -0.1076995   0.1473827  -0.0181000), wk =   0.0012726
        k(  273) = (  -0.0942370   0.1289599  -0.0158375), wk =   0.0012928
        k(  274) = (  -0.0807746   0.1105370  -0.0135750), wk =   0.0013130
        k(  275) = (  -0.0673122   0.0921142  -0.0113125), wk =   0.0013332
        k(  276) = (  -0.0538497   0.0736914  -0.0090500), wk =   0.0013534
        k(  277) = (  -0.0403873   0.0552685  -0.0067875), wk =   0.0013736
        k(  278) = (  -0.0269249   0.0368457  -0.0045250), wk =   0.0013938
        k(  279) = (  -0.0134624   0.0184228  -0.0022625), wk =   0.0014140
        k(  280) = (   0.0134624   0.0184228   0.0022625), wk =   0.0014544
        k(  281) = (   0.0269249   0.0368457   0.0045250), wk =   0.0014746
        k(  282) = (   0.0403873   0.0552685   0.0067875), wk =   0.0014948
        k(  283) = (   0.0538497   0.0736914   0.0090500), wk =   0.0015150
        k(  284) = (   0.0673122   0.0921142   0.0113125), wk =   0.0015352
        k(  285) = (   0.0807746   0.1105370   0.0135750), wk =   0.0015554
        k(  286) = (   0.0942370   0.1289599   0.0158375), wk =   0.0015756
        k(  287) = (   0.1076995   0.1473827   0.0181000), wk =   0.0015958
        k(  288) = (   0.1211619   0.1658055   0.0203625), wk =   0.0016160
        k(  289) = (   0.1346243   0.1842284   0.0226250), wk =   0.0016362
        k(  290) = (   0.1480868   0.2026512   0.0248875), wk =   0.0016564
        k(  291) = (   0.1615492   0.2210741   0.0271500), wk =   0.0016766
        k(  292) = (   0.1750117   0.2394969   0.0294125), wk =   0.0016968
        k(  293) = (   0.1884741   0.2579197   0.0316750), wk =   0.0017170
        k(  294) = (   0.2019365   0.2763426   0.0339375), wk =   0.0017372
        k(  295) = (   0.2153990   0.2947654   0.0362000), wk =   0.0017574
        k(  296) = (   0.2288614   0.3131883   0.0384625), wk =   0.0017776
        k(  297) = (   0.2423238   0.3316111   0.0407250), wk =   0.0017978
        k(  298) = (   0.2557863   0.3500339   0.0429875), wk =   0.0018180
        k(  299) = (   0.2692487   0.3684568   0.0452500), wk =   0.0018382
        k(  300) = (   0.2827111   0.3868796   0.0475125), wk =   0.0018584
        k(  301) = (   0.2961736   0.4053024   0.0497750), wk =   0.0018786
        k(  302) = (   0.3096360   0.4237253   0.0520375), wk =   0.0018988
        k(  303) = (   0.3096360   0.4237253   0.0281434), wk =   0.0019190
        k(  304) = (   0.3096360   0.4237253   0.0042492), wk =   0.0019392
        k(  305) = (   0.3096360   0.4237253  -0.0196449), wk =   0.0019594
        k(  306) = (   0.3096360   0.4237253  -0.0435391), wk =   0.0019796
        k(  307) = (   0.3096360   0.4237253  -0.0674332), wk =   0.0019998
        k(  308) = (   0.3096360   0.4237253  -0.0913274), wk =   0.0020200
        k(  309) = (   0.3096360   0.4237253  -0.1152215), wk =   0.0020402
        k(  310) = (   0.3096360   0.4237253  -0.1391157), wk =   0.0020604
        k(  311) = (   0.3096360   0.4237253  -0.1630098), wk =   0.0020806
        k(  312) = (   0.3096360   0.4237253  -0.1869040), wk =   0.0021008
        k(  313) = (   0.3096360   0.4237253  -0.2107982), wk =   0.0021210
        k(  314) = (   0.3096360   0.4237253  -0.2346923), wk =   0.0021412
        k(  315) = (   0.2875191   0.4237253  -0.2281689), wk =   0.0021614
        k(  316) = (   0.2654023   0.4237253  -0.2216455), wk =   0.0021816
        k(  317) = (   0.2432854   0.4237253  -0.2151222), wk =   0.0022018
        k(  318) = (   0.2211686   0.4237253  -0.2085988), wk =   0.0022220
        k(  319) = (   0.1990517   0.4237253  -0.2020754), wk =   0.0022422
        k(  320) = (   0.1769349   0.4237253  -0.1955520), wk =   0.0022624
        k(  321) = (   0.1548180   0.4237253  -0.1890286), wk =   0.0022826
        k(  322) = (   0.1327011   0.4237253  -0.1825052), wk =   0.0023028
        k(  323) = (   0.1105843   0.4237253  -0.1759818), wk =   0.0023230
        k(  324) = (   0.0884674   0.4237253  -0.1694585), wk =   0.0023432
        k(  325) = (   0.0663506   0.4237253  -0.1629351), wk =   0.0023633
        k(  326) = (   0.0442337   0.4237253  -0.1564117), wk =   0.0023835
        k(  327) = (   0.0221169   0.4237253  -0.1498883), wk =   0.0024037
        k(  328) = (   0.0000000   0.4237253  -0.1433649), wk =   0.0024239
        k(  329) = (  -0.0221169   0.4237253  -0.1368415), wk =   0.0024441
        k(  330) = (  -0.0442337   0.4237253  -0.1303182), wk =   0.0024643
        k(  331) = (  -0.0663506   0.4237253  -0.1237948), wk =   0.0024845
        k(  332) = (  -0.0884674   0.4237253  -0.1172714), wk =   0.0025047
        k(  333) = (  -0.1105843   0.4237253  -0.1107480), wk =   0.0025249
        k(  334) = (  -0.1327011   0.4237253  -0.1042246), wk =   0.0025451
        k(  335) = (  -0.1548180   0.4237253  -0.0977012), wk =   0.0025653
        k(  336) = (  -0.1769349   0.4237253  -0.0911778), wk =   0.0025855
        k(  337) = (  -0.1990517   0.4237253  -0.0846545), wk =   0.0026057
        k(  338) = (  -0.2211686   0.4237253  -0.0781311), wk =   0.0026259
        k(  339) = (  -0.2432854   0.4237253  -0.0716077), wk =   0.0026461
        k(  340) = (  -0.2654023   0.4237253  -0.0650843), wk =   0.0026663
        k(  341) = (  -0.2875191   0.4237253  -0.0585609), wk =   0.0026865
        k(  342) = (  -0.3096360   0.4237253  -0.0520375), wk =   0.0027067
        k(  343) = (  -0.3230984   0.4053024  -0.0543000), wk =   0.0027269
        k(  344) = (  -0.3365609   0.3868796  -0.0565625), wk =   0.0027471
        k(  345) = (  -0.3500233   0.3684568  -0.0588250), wk =   0.0027673
        k(  346) = (  -0.3634857   0.3500339  -0.0610876), wk =   0.0027875
        k(  347) = (  -0.3769482   0.3316111  -0.0633501), wk =   0.0028077
        k(  348) = (  -0.3904106   0.3131883  -0.0656126), wk =   0.0028279
        k(  349) = (  -0.4038730   0.2947654  -0.0678751), wk =   0.0028481
        k(  350) = (  -0.4173355   0.2763426  -0.0701376), wk =   0.0028683
        k(  351) = (  -0.4307979   0.2579197  -0.0724001), wk =   0.0028885
        k(  352) = (  -0.4442604   0.2394969  -0.0746626), wk =   0.0029087
        k(  353) = (  -0.4577228   0.2210741  -0.0769251), wk =   0.0029289
        k(  354) = (  -0.4711852   0.2026512  -0.0791876), wk =   0.0029491
        k(  355) = (  -0.4846477   0.1842284  -0.0814501), wk =   0.0029693
        k(  356) = (  -0.4981101   0.1658055  -0.0837126), wk =   0.0029895
        k(  357) = (  -0.5115725   0.1473827  -0.0859751), wk =   0.0030097
        k(  358) = (  -0.5250350   0.1289599  -0.0882376), wk =   0.0030299
        k(  359) = (  -0.5384974   0.1105370  -0.0905001), wk =   0.0030501
        k(  360) = (  -0.5519598   0.0921142  -0.0927626), wk =   0.0030703
        k(  361) = (  -0.5654223   0.0736914  -0.0950251), wk =   0.0030905
        k(  362) = (  -0.5788847   0.0552685  -0.0972876), wk =   0.0031107
        k(  363) = (  -0.5923471   0.0368457  -0.0995501), wk =   0.0031309
        k(  364) = (  -0.6058096   0.0184228  -0.1018126), wk =   0.0031511
        k(  365) = (   0.0000000   0.0217295  -0.0073520), wk =   0.0037369
        k(  366) = (   0.0000000   0.0434590  -0.0147041), wk =   0.0037571
        k(  367) = (   0.0000000   0.0651885  -0.0220561), wk =   0.0037773
        k(  368) = (   0.0000000   0.0869180  -0.0294082), wk =   0.0037975
        k(  369) = (   0.0000000   0.1086475  -0.0367602), wk =   0.0038177
        k(  370) = (   0.0000000   0.1303770  -0.0441123), wk =   0.0038379
        k(  371) = (   0.0000000   0.1521065  -0.0514643), wk =   0.0038581
        k(  372) = (   0.0000000   0.1738360  -0.0588164), wk =   0.0038783
        k(  373) = (   0.0000000   0.1955655  -0.0661684), wk =   0.0038985
        k(  374) = (   0.0000000   0.2172950  -0.0735205), wk =   0.0039187
        k(  375) = (   0.0000000   0.2390245  -0.0808725), wk =   0.0039389
        k(  376) = (   0.0000000   0.2607540  -0.0882246), wk =   0.0039591
        k(  377) = (   0.0000000   0.2824835  -0.0955766), wk =   0.0039793
        k(  378) = (   0.0000000   0.3042130  -0.1029287), wk =   0.0039995
        k(  379) = (   0.0000000   0.3259425  -0.1102807), wk =   0.0040197
        k(  380) = (   0.0000000   0.3476720  -0.1176328), wk =   0.0040399
        k(  381) = (   0.0000000   0.3694015  -0.1249848), wk =   0.0040601
        k(  382) = (   0.0000000   0.3911310  -0.1323369), wk =   0.0040803
        k(  383) = (   0.0000000   0.4128605  -0.1396889), wk =   0.0041005
        k(  384) = (   0.0000000   0.4345900  -0.1470409), wk =   0.0041207
        k(  385) = (   0.0000000   0.4563195  -0.1543930), wk =   0.0041409
        k(  386) = (   0.0000000   0.4780490  -0.1617450), wk =   0.0041611
        k(  387) = (   0.0000000   0.4997785  -0.1690971), wk =   0.0041813
        k(  388) = (   0.0000000   0.5215080  -0.1764491), wk =   0.0042015
        k(  389) = (   0.0000000   0.5432375  -0.1838012), wk =   0.0042217
        k(  390) = (   0.0000000   0.5649670  -0.1911532), wk =   0.0042419
        k(  391) = (   0.0000000   0.5866965  -0.1985053), wk =   0.0042621
        k(  392) = (   0.0000000   0.6084260  -0.2058573), wk =   0.0042823
        k(  393) = (   0.0000000   0.6301555  -0.2132094), wk =   0.0043025
        k(  394) = (   0.0000000   0.6518850  -0.2205614), wk =   0.0043227
        k(  395) = (   0.0000000   0.6736145  -0.2279135), wk =   0.0043429
        k(  396) = (   0.0000000   0.6953440  -0.2352655), wk =   0.0043631
        k(  397) = (   0.0000000   0.7170736  -0.2426176), wk =   0.0043833
        k(  398) = (   0.0000000   0.7388031  -0.2499696), wk =   0.0044035
        k(  399) = (   0.0000000   0.7605326  -0.2573217), wk =   0.0044237
        k(  400) = (   0.0000000   0.7822621  -0.2646737), wk =   0.0044439
        k(  401) = (   0.0000000   0.8039916  -0.2720258), wk =   0.0044641
        k(  402) = (   0.0000000   0.8257211  -0.2793778), wk =   0.0044843

                       cryst. coord.
        k(    1) = (   0.0000000   0.0000000   0.0000000), wk =   0.0000404
        k(    2) = (   0.0000000   0.0000000   0.0416667), wk =   0.0000808
        k(    3) = (   0.0000000   0.0000000   0.0833333), wk =   0.0001212
        k(    4) = (   0.0000000   0.0000000   0.1250000), wk =   0.0001616
        k(    5) = (   0.0000000   0.0000000   0.1666667), wk =   0.0002020
        k(    6) = (   0.0000000   0.0000000   0.2083333), wk =   0.0002424
        k(    7) = (   0.0000000   0.0000000   0.2500000), wk =   0.0002828
        k(    8) = (   0.0000000   0.0000000   0.2916667), wk =   0.0003232
        k(    9) = (   0.0000000   0.0000000   0.3333333), wk =   0.0003636
        k(   10) = (   0.0000000   0.0000000   0.3750000), wk =   0.0004040
        k(   11) = (   0.0000000   0.0000000   0.4166667), wk =   0.0004444
        k(   12) = (   0.0000000   0.0000000   0.4583333), wk =   0.0004848
        k(   13) = (   0.0000000   0.0000000   0.5000000), wk =   0.0005252
        k(   14) = (   0.0000000   0.0217391   0.5000000), wk =   0.0002828
        k(   15) = (   0.0000000   0.0434783   0.5000000), wk =   0.0003030
        k(   16) = (   0.0000000   0.0652174   0.5000000), wk =   0.0003232
        k(   17) = (   0.0000000   0.0869565   0.5000000), wk =   0.0003434
        k(   18) = (   0.0000000   0.1086957   0.5000000), wk =   0.0003636
        k(   19) = (   0.0000000   0.1304348   0.5000000), wk =   0.0003838
        k(   20) = (   0.0000000   0.1521739   0.5000000), wk =   0.0004040
        k(   21) = (   0.0000000   0.1739130   0.5000000), wk =   0.0004242
        k(   22) = (   0.0000000   0.1956522   0.5000000), wk =   0.0004444
        k(   23) = (   0.0000000   0.2173913   0.5000000), wk =   0.0004646
        k(   24) = (   0.0000000   0.2391304   0.5000000), wk =   0.0004848
        k(   25) = (   0.0000000   0.2608696   0.5000000), wk =   0.0005050
        k(   26) = (   0.0000000   0.2826087   0.5000000), wk =   0.0005252
        k(   27) = (   0.0000000   0.3043478   0.5000000), wk =   0.0005454
        k(   28) = (   0.0000000   0.3260870   0.5000000), wk =   0.0005656
        k(   29) = (   0.0000000   0.3478261   0.5000000), wk =   0.0005858
        k(   30) = (   0.0000000   0.3695652   0.5000000), wk =   0.0006060
        k(   31) = (   0.0000000   0.3913043   0.5000000), wk =   0.0006262
        k(   32) = (   0.0000000   0.4130435   0.5000000), wk =   0.0006464
        k(   33) = (   0.0000000   0.4347826   0.5000000), wk =   0.0006666
        k(   34) = (   0.0000000   0.4565217   0.5000000), wk =   0.0006868
        k(   35) = (   0.0000000   0.4782609   0.5000000), wk =   0.0007070
        k(   36) = (   0.0000000   0.5000000   0.5000000), wk =   0.0007272
        k(   37) = (   0.0000000   0.5000000   0.4583333), wk =   0.0007474
        k(   38) = (   0.0000000   0.5000000   0.4166667), wk =   0.0007676
        k(   39) = (   0.0000000   0.5000000   0.3750000), wk =   0.0007878
        k(   40) = (   0.0000000   0.5000000   0.3333333), wk =   0.0008080
        k(   41) = (   0.0000000   0.5000000   0.2916667), wk =   0.0008282
        k(   42) = (   0.0000000   0.5000000   0.2500000), wk =   0.0008484
        k(   43) = (   0.0000000   0.5000000   0.2083333), wk =   0.0008686
        k(   44) = (   0.0000000   0.5000000   0.1666667), wk =   0.0008888
        k(   45) = (   0.0000000   0.5000000   0.1250000), wk =   0.0009090
        k(   46) = (   0.0000000   0.5000000   0.0833333), wk =   0.0009292
        k(   47) = (   0.0000000   0.5000000   0.0416667), wk =   0.0009494
        k(   48) = (   0.0000000   0.5000000  -0.0000000), wk =   0.0009696
        k(   49) = (   0.0000000   0.4782609   0.0000000), wk =   0.0009898
        k(   50) = (   0.0000000   0.4565217   0.0000000), wk =   0.0010100
        k(   51) = (   0.0000000   0.4347826  -0.0000000), wk =   0.0010302
        k(   52) = (   0.0000000   0.4130435   0.0000000), wk =   0.0010504
        k(   53) = (   0.0000000   0.3913043   0.0000000), wk =   0.0010706
        k(   54) = (   0.0000000   0.3695652  -0.0000000), wk =   0.0010908
        k(   55) = (   0.0000000   0.3478261   0.0000000), wk =   0.0011110
        k(   56) = (   0.0000000   0.3260870   0.0000000), wk =   0.0011312
        k(   57) = (   0.0000000   0.3043478  -0.0000000), wk =   0.0011514
        k(   58) = (   0.0000000   0.2826087   0.0000000), wk =   0.0011716
        k(   59) = (   0.0000000   0.2608696   0.0000000), wk =   0.0011918
        k(   60) = (   0.0000000   0.2391304   0.0000000), wk =   0.0012120
        k(   61) = (  -0.0000000   0.2173913   0.0000000), wk =   0.0012322
        k(   62) = (   0.0000000   0.1956522   0.0000000), wk =   0.0012524
        k(   63) = (   0.0000000   0.1739130   0.0000000), wk =   0.0012726
        k(   64) = (   0.0000000   0.1521739  -0.0000000), wk =   0.0012928
        k(   65) = (   0.0000000   0.1304348   0.0000000), wk =   0.0013130
        k(   66) = (   0.0000000   0.1086957   0.0000000), wk =   0.0013332
        k(   67) = (   0.0000000   0.0869565   0.0000000), wk =   0.0013534
        k(   68) = (   0.0000000   0.0652174   0.0000000), wk =   0.0013736
        k(   69) = (   0.0000000   0.0434783   0.0000000), wk =   0.0013938
        k(   70) = (   0.0000000   0.0217391   0.0000000), wk =   0.0014140
        k(   71) = (   0.0000000   0.0000000   0.0000000), wk =   0.0028683
        k(   72) = (  -0.0217391   0.0000000   0.0000000), wk =   0.0014544
        k(   73) = (  -0.0434783   0.0000000   0.0000000), wk =   0.0014746
        k(   74) = (  -0.0652174   0.0000000   0.0000000), wk =   0.0014948
        k(   75) = (  -0.0869565   0.0000000   0.0000000), wk =   0.0015150
        k(   76) = (  -0.1086957   0.0000000   0.0000000), wk =   0.0015352
        k(   77) = (  -0.1304348   0.0000000   0.0000000), wk =   0.0015554
        k(   78) = (  -0.1521739   0.0000000   0.0000000), wk =   0.0015756
        k(   79) = (  -0.1739130   0.0000000   0.0000000), wk =   0.0015958
        k(   80) = (  -0.1956522   0.0000000   0.0000000), wk =   0.0016160
        k(   81) = (  -0.2173913   0.0000000   0.0000000), wk =   0.0016362
        k(   82) = (  -0.2391304   0.0000000   0.0000000), wk =   0.0016564
        k(   83) = (  -0.2608696   0.0000000   0.0000000), wk =   0.0016766
        k(   84) = (  -0.2826087   0.0000000   0.0000000), wk =   0.0016968
        k(   85) = (  -0.3043478   0.0000000   0.0000000), wk =   0.0017170
        k(   86) = (  -0.3260870   0.0000000   0.0000000), wk =   0.0017372
        k(   87) = (  -0.3478261   0.0000000   0.0000000), wk =   0.0017574
        k(   88) = (  -0.3695652   0.0000000   0.0000000), wk =   0.0017776
        k(   89) = (  -0.3913043   0.0000000   0.0000000), wk =   0.0017978
        k(   90) = (  -0.4130435   0.0000000   0.0000000), wk =   0.0018180
        k(   91) = (  -0.4347826   0.0000000   0.0000000), wk =   0.0018382
        k(   92) = (  -0.4565217  -0.0000000   0.0000000), wk =   0.0018584
        k(   93) = (  -0.4782609   0.0000000   0.0000000), wk =   0.0018786
        k(   94) = (  -0.5000000   0.0000000   0.0000000), wk =   0.0018988
        k(   95) = (  -0.5000000   0.0000000   0.0416667), wk =   0.0019190
        k(   96) = (  -0.5000000   0.0000000   0.0833333), wk =   0.0019392
        k(   97) = (  -0.5000000   0.0000000   0.1250000), wk =   0.0019594
        k(   98) = (  -0.5000000   0.0000000   0.1666667), wk =   0.0019796
        k(   99) = (  -0.5000000   0.0000000   0.2083333), wk =   0.0019998
        k(  100) = (  -0.5000000   0.0000000   0.2500000), wk =   0.0020200
        k(  101) = (  -0.5000000   0.0000000   0.2916667), wk =   0.0020402
        k(  102) = (  -0.5000000   0.0000000   0.3333333), wk =   0.0020604
        k(  103) = (  -0.5000000   0.0000000   0.3750000), wk =   0.0020806
        k(  104) = (  -0.5000000   0.0000000   0.4166667), wk =   0.0021008
        k(  105) = (  -0.5000000   0.0000000   0.4583333), wk =   0.0021210
        k(  106) = (  -0.5000000   0.0000000   0.5000000), wk =   0.0021412
        k(  107) = (  -0.4821429   0.0178571   0.4821429), wk =   0.0021614
        k(  108) = (  -0.4642857   0.0357143   0.4642857), wk =   0.0021816
        k(  109) = (  -0.4464286   0.0535714   0.4464286), wk =   0.0022018
        k(  110) = (  -0.4285714   0.0714286   0.4285714), wk =   0.0022220
        k(  111) = (  -0.4107143   0.0892857   0.4107143), wk =   0.0022422
        k(  112) = (  -0.3928571   0.1071429   0.3928571), wk =   0.0022624
        k(  113) = (  -0.3750000   0.1250000   0.3750000), wk =   0.0022826
        k(  114) = (  -0.3571429   0.1428571   0.3571429), wk =   0.0023028
        k(  115) = (  -0.3392857   0.1607143   0.3392857), wk =   0.0023230
        k(  116) = (  -0.3214286   0.1785714   0.3214286), wk =   0.0023432
        k(  117) = (  -0.3035714   0.1964286   0.3035714), wk =   0.0023633
        k(  118) = (  -0.2857143   0.2142857   0.2857143), wk =   0.0023835
        k(  119) = (  -0.2678571   0.2321429   0.2678571), wk =   0.0024037
        k(  120) = (  -0.2500000   0.2500000   0.2500000), wk =   0.0024239
        k(  121) = (  -0.2321429   0.2678571   0.2321429), wk =   0.0024441
        k(  122) = (  -0.2142857   0.2857143   0.2142857), wk =   0.0024643
        k(  123) = (  -0.1964286   0.3035714   0.1964286), wk =   0.0024845
        k(  124) = (  -0.1785714   0.3214286   0.1785714), wk =   0.0025047
        k(  125) = (  -0.1607143   0.3392857   0.1607143), wk =   0.0025249
        k(  126) = (  -0.1428571   0.3571429   0.1428571), wk =   0.0025451
        k(  127) = (  -0.1250000   0.3750000   0.1250000), wk =   0.0025653
        k(  128) = (  -0.1071429   0.3928571   0.1071429), wk =   0.0025855
        k(  129) = (  -0.0892857   0.4107143   0.0892857), wk =   0.0026057
        k(  130) = (  -0.0714286   0.4285714   0.0714286), wk =   0.0026259
        k(  131) = (  -0.0535714   0.4464286   0.0535714), wk =   0.0026461
        k(  132) = (  -0.0357143   0.4642857   0.0357143), wk =   0.0026663
        k(  133) = (  -0.0178571   0.4821429   0.0178571), wk =   0.0026865
        k(  134) = (   0.0000000   0.5000000  -0.0000000), wk =   0.0027067
        k(  135) = (   0.0217391   0.5000000   0.0000000), wk =   0.0027269
        k(  136) = (   0.0434783   0.5000000  -0.0000000), wk =   0.0027471
        k(  137) = (   0.0652174   0.5000000   0.0000000), wk =   0.0027673
        k(  138) = (   0.0869565   0.5000000   0.0000000), wk =   0.0027875
        k(  139) = (   0.1086957   0.5000000   0.0000000), wk =   0.0028077
        k(  140) = (   0.1304348   0.5000000   0.0000000), wk =   0.0028279
        k(  141) = (   0.1521739   0.5000000  -0.0000000), wk =   0.0028481
        k(  142) = (   0.1739130   0.5000000  -0.0000000), wk =   0.0028683
        k(  143) = (   0.1956522   0.5000000   0.0000000), wk =   0.0028885
        k(  144) = (   0.2173913   0.5000000  -0.0000000), wk =   0.0029087
        k(  145) = (   0.2391304   0.5000000   0.0000000), wk =   0.0029289
        k(  146) = (   0.2608696   0.5000000   0.0000000), wk =   0.0029491
        k(  147) = (   0.2826087   0.5000000   0.0000000), wk =   0.0029693
        k(  148) = (   0.3043478   0.5000000  -0.0000000), wk =   0.0029895
        k(  149) = (   0.3260870   0.5000000   0.0000000), wk =   0.0030097
        k(  150) = (   0.3478261   0.5000000   0.0000000), wk =   0.0030299
        k(  151) = (   0.3695652   0.5000000  -0.0000000), wk =   0.0030501
        k(  152) = (   0.3913043   0.5000000  -0.0000000), wk =   0.0030703
        k(  153) = (   0.4130435   0.5000000  -0.0000000), wk =   0.0030905
        k(  154) = (   0.4347826   0.5000000   0.0000000), wk =   0.0031107
        k(  155) = (   0.4565217   0.5000000  -0.0000000), wk =   0.0031309
        k(  156) = (   0.4782609   0.5000000   0.0000000), wk =   0.0031511
        k(  157) = (   0.5000000   0.5000000  -0.0000000), wk =   0.0063427
        k(  158) = (   0.4814815   0.4814815   0.0000000), wk =   0.0063831
        k(  159) = (   0.4629630   0.4629630   0.0000000), wk =   0.0064235
        k(  160) = (   0.4444444   0.4444444  -0.0000000), wk =   0.0064639
        k(  161) = (   0.4259259   0.4259259   0.0000000), wk =   0.0065043
        k(  162) = (   0.4074074   0.4074074   0.0000000), wk =   0.0065447
        k(  163) = (   0.3888889   0.3888889   0.0000000), wk =   0.0065851
        k(  164) = (   0.3703704   0.3703704   0.0000000), wk =   0.0066255
        k(  165) = (   0.3518519   0.3518519   0.0000000), wk =   0.0066659
        k(  166) = (   0.3333333   0.3333333   0.0000000), wk =   0.0067063
        k(  167) = (   0.3148148   0.3148148  -0.0000000), wk =   0.0067467
        k(  168) = (   0.2962963   0.2962963  -0.0000000), wk =   0.0067871
        k(  169) = (   0.2777778   0.2777778  -0.0000000), wk =   0.0068275
        k(  170) = (   0.2592593   0.2592593   0.0000000), wk =   0.0068679
        k(  171) = (   0.2407407   0.2407407   0.0000000), wk =   0.0069083
        k(  172) = (   0.2222222   0.2222222  -0.0000000), wk =   0.0069487
        k(  173) = (   0.2037037   0.2037037   0.0000000), wk =   0.0069891
        k(  174) = (   0.1851852   0.1851852  -0.0000000), wk =   0.0070295
        k(  175) = (   0.1666667   0.1666667   0.0000000), wk =   0.0070699
        k(  176) = (   0.1481481   0.1481481  -0.0000000), wk =   0.0071102
        k(  177) = (   0.1296296   0.1296296   0.0000000), wk =   0.0071506
        k(  178) = (   0.1111111   0.1111111  -0.0000000), wk =   0.0071910
        k(  179) = (   0.0925926   0.0925926  -0.0000000), wk =   0.0072314
        k(  180) = (   0.0740741   0.0740741  -0.0000000), wk =   0.0072718
        k(  181) = (   0.0555556   0.0555556  -0.0000000), wk =   0.0073122
        k(  182) = (   0.0370370   0.0370370   0.0000000), wk =   0.0073526
        k(  183) = (   0.0185185   0.0185185   0.0000000), wk =   0.0073930
        k(  184) = (   0.0000000   0.0000000   0.0000000), wk =   0.0074334
        k(  185) = (  -0.0128205   0.0128205   0.0128205), wk =   0.0037369
        k(  186) = (  -0.0256410   0.0256410   0.0256410), wk =   0.0037571
        k(  187) = (  -0.0384615   0.0384615   0.0384615), wk =   0.0037773
        k(  188) = (  -0.0512821   0.0512821   0.0512821), wk =   0.0037975
        k(  189) = (  -0.0641026   0.0641026   0.0641026), wk =   0.0038177
        k(  190) = (  -0.0769231   0.0769231   0.0769231), wk =   0.0038379
        k(  191) = (  -0.0897436   0.0897436   0.0897436), wk =   0.0038581
        k(  192) = (  -0.1025641   0.1025641   0.1025641), wk =   0.0038783
        k(  193) = (  -0.1153846   0.1153846   0.1153846), wk =   0.0038985
        k(  194) = (  -0.1282051   0.1282051   0.1282051), wk =   0.0039187
        k(  195) = (  -0.1410256   0.1410256   0.1410256), wk =   0.0039389
        k(  196) = (  -0.1538462   0.1538462   0.1538462), wk =   0.0039591
        k(  197) = (  -0.1666667   0.1666667   0.1666667), wk =   0.0039793
        k(  198) = (  -0.1794872   0.1794872   0.1794872), wk =   0.0039995
        k(  199) = (  -0.1923077   0.1923077   0.1923077), wk =   0.0040197
        k(  200) = (  -0.2051282   0.2051282   0.2051282), wk =   0.0040399
        k(  201) = (  -0.2179487   0.2179487   0.2179487), wk =   0.0040601
        k(  202) = (  -0.2307692   0.2307692   0.2307692), wk =   0.0040803
        k(  203) = (  -0.2435897   0.2435897   0.2435897), wk =   0.0041005
        k(  204) = (  -0.2564103   0.2564103   0.2564103), wk =   0.0041207
        k(  205) = (  -0.2692308   0.2692308   0.2692308), wk =   0.0041409
        k(  206) = (  -0.2820513   0.2820513   0.2820513), wk =   0.0041611
        k(  207) = (  -0.2948718   0.2948718   0.2948718), wk =   0.0041813
        k(  208) = (  -0.3076923   0.3076923   0.3076923), wk =   0.0042015
        k(  209) = (  -0.3205128   0.3205128   0.3205128), wk =   0.0042217
        k(  210) = (  -0.3333333   0.3333333   0.3333333), wk =   0.0042419
        k(  211) = (  -0.3461538   0.3461538   0.3461538), wk =   0.0042621
        k(  212) = (  -0.3589744   0.3589744   0.3589744), wk =   0.0042823
        k(  213) = (  -0.3717949   0.3717949   0.3717949), wk =   0.0043025
        k(  214) = (  -0.3846154   0.3846154   0.3846154), wk =   0.0043227
        k(  215) = (  -0.3974359   0.3974359   0.3974359), wk =   0.0043429
        k(  216) = (  -0.4102564   0.4102564   0.4102564), wk =   0.0043631
        k(  217) = (  -0.4230769   0.4230769   0.4230769), wk =   0.0043833
        k(  218) = (  -0.4358974   0.4358974   0.4358974), wk =   0.0044035
        k(  219) = (  -0.4487179   0.4487179   0.4487179), wk =   0.0044237
        k(  220) = (  -0.4615385   0.4615385   0.4615385), wk =   0.0044439
        k(  221) = (  -0.4743590   0.4743590   0.4743590), wk =   0.0044641
        k(  222) = (  -0.4871795   0.4871795   0.4871795), wk =   0.0044843
        k(  223) = (  -0.0217391   0.0000000  -0.5000000), wk =   0.0002828
        k(  224) = (  -0.0434783   0.0000000  -0.5000000), wk =   0.0003030
        k(  225) = (  -0.0652174   0.0000000  -0.5000000), wk =   0.0003232
        k(  226) = (  -0.0869565   0.0000000  -0.5000000), wk =   0.0003434
        k(  227) = (  -0.1086957   0.0000000  -0.5000000), wk =   0.0003636
        k(  228) = (  -0.1304348   0.0000000  -0.5000000), wk =   0.0003838
        k(  229) = (  -0.1521739   0.0000000  -0.5000000), wk =   0.0004040
        k(  230) = (  -0.1739130   0.0000000  -0.5000000), wk =   0.0004242
        k(  231) = (  -0.1956522   0.0000000  -0.5000000), wk =   0.0004444
        k(  232) = (  -0.2173913   0.0000000  -0.5000000), wk =   0.0004646
        k(  233) = (  -0.2391304   0.0000000  -0.5000000), wk =   0.0004848
        k(  234) = (  -0.2608696   0.0000000  -0.5000000), wk =   0.0005050
        k(  235) = (  -0.2826087   0.0000000  -0.5000000), wk =   0.0005252
        k(  236) = (  -0.3043478   0.0000000  -0.5000000), wk =   0.0005454
        k(  237) = (  -0.3260870   0.0000000  -0.5000000), wk =   0.0005656
        k(  238) = (  -0.3478261   0.0000000  -0.5000000), wk =   0.0005858
        k(  239) = (  -0.3695652   0.0000000  -0.5000000), wk =   0.0006060
        k(  240) = (  -0.3913043   0.0000000  -0.5000000), wk =   0.0006262
        k(  241) = (  -0.4130435   0.0000000  -0.5000000), wk =   0.0006464
        k(  242) = (  -0.4347826   0.0000000  -0.5000000), wk =   0.0006666
        k(  243) = (  -0.4565217  -0.0000000  -0.5000000), wk =   0.0006868
        k(  244) = (  -0.4782609   0.0000000  -0.5000000), wk =   0.0007070
        k(  245) = (  -0.5000000   0.0000000  -0.5000000), wk =   0.0007272
        k(  246) = (  -0.5000000   0.0000000  -0.4583333), wk =   0.0007474
        k(  247) = (  -0.5000000   0.0000000  -0.4166667), wk =   0.0007676
        k(  248) = (  -0.5000000   0.0000000  -0.3750000), wk =   0.0007878
        k(  249) = (  -0.5000000   0.0000000  -0.3333333), wk =   0.0008080
        k(  250) = (  -0.5000000   0.0000000  -0.2916667), wk =   0.0008282
        k(  251) = (  -0.5000000   0.0000000  -0.2500000), wk =   0.0008484
        k(  252) = (  -0.5000000   0.0000000  -0.2083333), wk =   0.0008686
        k(  253) = (  -0.5000000   0.0000000  -0.1666667), wk =   0.0008888
        k(  254) = (  -0.5000000   0.0000000  -0.1250000), wk =   0.0009090
        k(  255) = (  -0.5000000   0.0000000  -0.0833333), wk =   0.0009292
        k(  256) = (  -0.5000000   0.0000000  -0.0416667), wk =   0.0009494
        k(  257) = (  -0.5000000   0.0000000   0.0000000), wk =   0.0009696
        k(  258) = (  -0.4782609   0.0000000   0.0000000), wk =   0.0009898
        k(  259) = (  -0.4565217  -0.0000000   0.0000000), wk =   0.0010100
        k(  260) = (  -0.4347826   0.0000000   0.0000000), wk =   0.0010302
        k(  261) = (  -0.4130435   0.0000000   0.0000000), wk =   0.0010504
        k(  262) = (  -0.3913043  -0.0000000   0.0000000), wk =   0.0010706
        k(  263) = (  -0.3695652   0.0000000   0.0000000), wk =   0.0010908
        k(  264) = (  -0.3478261   0.0000000   0.0000000), wk =   0.0011110
        k(  265) = (  -0.3260870   0.0000000   0.0000000), wk =   0.0011312
        k(  266) = (  -0.3043478   0.0000000   0.0000000), wk =   0.0011514
        k(  267) = (  -0.2826087   0.0000000   0.0000000), wk =   0.0011716
        k(  268) = (  -0.2608696   0.0000000   0.0000000), wk =   0.0011918
        k(  269) = (  -0.2391304   0.0000000   0.0000000), wk =   0.0012120
        k(  270) = (  -0.2173913   0.0000000   0.0000000), wk =   0.0012322
        k(  271) = (  -0.1956522   0.0000000   0.0000000), wk =   0.0012524
        k(  272) = (  -0.1739130   0.0000000   0.0000000), wk =   0.0012726
        k(  273) = (  -0.1521739   0.0000000   0.0000000), wk =   0.0012928
        k(  274) = (  -0.1304348   0.0000000   0.0000000), wk =   0.0013130
        k(  275) = (  -0.1086957  -0.0000000   0.0000000), wk =   0.0013332
        k(  276) = (  -0.0869565   0.0000000   0.0000000), wk =   0.0013534
        k(  277) = (  -0.0652174   0.0000000   0.0000000), wk =   0.0013736
        k(  278) = (  -0.0434783  -0.0000000   0.0000000), wk =   0.0013938
        k(  279) = (  -0.0217391   0.0000000   0.0000000), wk =   0.0014140
        k(  280) = (   0.0000000   0.0217391   0.0000000), wk =   0.0014544
        k(  281) = (   0.0000000   0.0434783   0.0000000), wk =   0.0014746
        k(  282) = (   0.0000000   0.0652174   0.0000000), wk =   0.0014948
        k(  283) = (   0.0000000   0.0869565   0.0000000), wk =   0.0015150
        k(  284) = (   0.0000000   0.1086957  -0.0000000), wk =   0.0015352
        k(  285) = (   0.0000000   0.1304348   0.0000000), wk =   0.0015554
        k(  286) = (   0.0000000   0.1521739  -0.0000000), wk =   0.0015756
        k(  287) = (   0.0000000   0.1739130   0.0000000), wk =   0.0015958
        k(  288) = (   0.0000000   0.1956522   0.0000000), wk =   0.0016160
        k(  289) = (   0.0000000   0.2173913  -0.0000000), wk =   0.0016362
        k(  290) = (   0.0000000   0.2391304   0.0000000), wk =   0.0016564
        k(  291) = (   0.0000000   0.2608696   0.0000000), wk =   0.0016766
        k(  292) = (   0.0000000   0.2826087   0.0000000), wk =   0.0016968
        k(  293) = (   0.0000000   0.3043478  -0.0000000), wk =   0.0017170
        k(  294) = (   0.0000000   0.3260870   0.0000000), wk =   0.0017372
        k(  295) = (   0.0000000   0.3478261   0.0000000), wk =   0.0017574
        k(  296) = (   0.0000000   0.3695652  -0.0000000), wk =   0.0017776
        k(  297) = (   0.0000000   0.3913043   0.0000000), wk =   0.0017978
        k(  298) = (   0.0000000   0.4130435   0.0000000), wk =   0.0018180
        k(  299) = (   0.0000000   0.4347826  -0.0000000), wk =   0.0018382
        k(  300) = (   0.0000000   0.4565217  -0.0000000), wk =   0.0018584
        k(  301) = (   0.0000000   0.4782609   0.0000000), wk =   0.0018786
        k(  302) = (   0.0000000   0.5000000  -0.0000000), wk =   0.0018988
        k(  303) = (   0.0000000   0.5000000  -0.0416667), wk =   0.0019190
        k(  304) = (   0.0000000   0.5000000  -0.0833333), wk =   0.0019392
        k(  305) = (   0.0000000   0.5000000  -0.1250000), wk =   0.0019594
        k(  306) = (   0.0000000   0.5000000  -0.1666667), wk =   0.0019796
        k(  307) = (   0.0000000   0.5000000  -0.2083333), wk =   0.0019998
        k(  308) = (   0.0000000   0.5000000  -0.2500000), wk =   0.0020200
        k(  309) = (   0.0000000   0.5000000  -0.2916667), wk =   0.0020402
        k(  310) = (   0.0000000   0.5000000  -0.3333333), wk =   0.0020604
        k(  311) = (   0.0000000   0.5000000  -0.3750000), wk =   0.0020806
        k(  312) = (   0.0000000   0.5000000  -0.4166667), wk =   0.0021008
        k(  313) = (   0.0000000   0.5000000  -0.4583333), wk =   0.0021210
        k(  314) = (   0.0000000   0.5000000  -0.5000000), wk =   0.0021412
        k(  315) = (  -0.0178571   0.4821429  -0.4821429), wk =   0.0021614
        k(  316) = (  -0.0357143   0.4642857  -0.4642857), wk =   0.0021816
        k(  317) = (  -0.0535714   0.4464286  -0.4464286), wk =   0.0022018
        k(  318) = (  -0.0714286   0.4285714  -0.4285714), wk =   0.0022220
        k(  319) = (  -0.0892857   0.4107143  -0.4107143), wk =   0.0022422
        k(  320) = (  -0.1071429   0.3928571  -0.3928571), wk =   0.0022624
        k(  321) = (  -0.1250000   0.3750000  -0.3750000), wk =   0.0022826
        k(  322) = (  -0.1428571   0.3571429  -0.3571429), wk =   0.0023028
        k(  323) = (  -0.1607143   0.3392857  -0.3392857), wk =   0.0023230
        k(  324) = (  -0.1785714   0.3214286  -0.3214286), wk =   0.0023432
        k(  325) = (  -0.1964286   0.3035714  -0.3035714), wk =   0.0023633
        k(  326) = (  -0.2142857   0.2857143  -0.2857143), wk =   0.0023835
        k(  327) = (  -0.2321429   0.2678571  -0.2678571), wk =   0.0024037
        k(  328) = (  -0.2500000   0.2500000  -0.2500000), wk =   0.0024239
        k(  329) = (  -0.2678571   0.2321429  -0.2321429), wk =   0.0024441
        k(  330) = (  -0.2857143   0.2142857  -0.2142857), wk =   0.0024643
        k(  331) = (  -0.3035714   0.1964286  -0.1964286), wk =   0.0024845
        k(  332) = (  -0.3214286   0.1785714  -0.1785714), wk =   0.0025047
        k(  333) = (  -0.3392857   0.1607143  -0.1607143), wk =   0.0025249
        k(  334) = (  -0.3571429   0.1428571  -0.1428571), wk =   0.0025451
        k(  335) = (  -0.3750000   0.1250000  -0.1250000), wk =   0.0025653
        k(  336) = (  -0.3928571   0.1071429  -0.1071429), wk =   0.0025855
        k(  337) = (  -0.4107143   0.0892857  -0.0892857), wk =   0.0026057
        k(  338) = (  -0.4285714   0.0714286  -0.0714286), wk =   0.0026259
        k(  339) = (  -0.4464286   0.0535714  -0.0535714), wk =   0.0026461
        k(  340) = (  -0.4642857   0.0357143  -0.0357143), wk =   0.0026663
        k(  341) = (  -0.4821429   0.0178571  -0.0178571), wk =   0.0026865
        k(  342) = (  -0.5000000   0.0000000   0.0000000), wk =   0.0027067
        k(  343) = (  -0.5000000  -0.0217391   0.0000000), wk =   0.0027269
        k(  344) = (  -0.5000000  -0.0434783   0.0000000), wk =   0.0027471
        k(  345) = (  -0.5000000  -0.0652174   0.0000000), wk =   0.0027673
        k(  346) = (  -0.5000000  -0.0869565   0.0000000), wk =   0.0027875
        k(  347) = (  -0.5000000  -0.1086957   0.0000000), wk =   0.0028077
        k(  348) = (  -0.5000000  -0.1304348   0.0000000), wk =   0.0028279
        k(  349) = (  -0.5000000  -0.1521739   0.0000000), wk =   0.0028481
        k(  350) = (  -0.5000000  -0.1739130   0.0000000), wk =   0.0028683
        k(  351) = (  -0.5000000  -0.1956522   0.0000000), wk =   0.0028885
        k(  352) = (  -0.5000000  -0.2173913   0.0000000), wk =   0.0029087
        k(  353) = (  -0.5000000  -0.2391304   0.0000000), wk =   0.0029289
        k(  354) = (  -0.5000000  -0.2608696   0.0000000), wk =   0.0029491
        k(  355) = (  -0.5000000  -0.2826087   0.0000000), wk =   0.0029693
        k(  356) = (  -0.5000000  -0.3043478   0.0000000), wk =   0.0029895
        k(  357) = (  -0.5000000  -0.3260870   0.0000000), wk =   0.0030097
        k(  358) = (  -0.5000000  -0.3478261   0.0000000), wk =   0.0030299
        k(  359) = (  -0.5000000  -0.3695652   0.0000000), wk =   0.0030501
        k(  360) = (  -0.5000000  -0.3913043   0.0000000), wk =   0.0030703
        k(  361) = (  -0.5000000  -0.4130435   0.0000000), wk =   0.0030905
        k(  362) = (  -0.5000000  -0.4347826   0.0000000), wk =   0.0031107
        k(  363) = (  -0.5000000  -0.4565217   0.0000000), wk =   0.0031309
        k(  364) = (  -0.5000000  -0.4782609   0.0000000), wk =   0.0031511
        k(  365) = (  -0.0128205   0.0128205  -0.0128205), wk =   0.0037369
        k(  366) = (  -0.0256410   0.0256410  -0.0256410), wk =   0.0037571
        k(  367) = (  -0.0384615   0.0384615  -0.0384615), wk =   0.0037773
        k(  368) = (  -0.0512821   0.0512821  -0.0512821), wk =   0.0037975
        k(  369) = (  -0.0641026   0.0641026  -0.0641026), wk =   0.0038177
        k(  370) = (  -0.0769231   0.0769231  -0.0769231), wk =   0.0038379
        k(  371) = (  -0.0897436   0.0897436  -0.0897436), wk =   0.0038581
        k(  372) = (  -0.1025641   0.1025641  -0.1025641), wk =   0.0038783
        k(  373) = (  -0.1153846   0.1153846  -0.1153846), wk =   0.0038985
        k(  374) = (  -0.1282051   0.1282051  -0.1282051), wk =   0.0039187
        k(  375) = (  -0.1410256   0.1410256  -0.1410256), wk =   0.0039389
        k(  376) = (  -0.1538462   0.1538462  -0.1538462), wk =   0.0039591
        k(  377) = (  -0.1666667   0.1666667  -0.1666667), wk =   0.0039793
        k(  378) = (  -0.1794872   0.1794872  -0.1794872), wk =   0.0039995
        k(  379) = (  -0.1923077   0.1923077  -0.1923077), wk =   0.0040197
        k(  380) = (  -0.2051282   0.2051282  -0.2051282), wk =   0.0040399
        k(  381) = (  -0.2179487   0.2179487  -0.2179487), wk =   0.0040601
        k(  382) = (  -0.2307692   0.2307692  -0.2307692), wk =   0.0040803
        k(  383) = (  -0.2435897   0.2435897  -0.2435897), wk =   0.0041005
        k(  384) = (  -0.2564103   0.2564103  -0.2564103), wk =   0.0041207
        k(  385) = (  -0.2692308   0.2692308  -0.2692308), wk =   0.0041409
        k(  386) = (  -0.2820513   0.2820513  -0.2820513), wk =   0.0041611
        k(  387) = (  -0.2948718   0.2948718  -0.2948718), wk =   0.0041813
        k(  388) = (  -0.3076923   0.3076923  -0.3076923), wk =   0.0042015
        k(  389) = (  -0.3205128   0.3205128  -0.3205128), wk =   0.0042217
        k(  390) = (  -0.3333333   0.3333333  -0.3333333), wk =   0.0042419
        k(  391) = (  -0.3461538   0.3461538  -0.3461538), wk =   0.0042621
        k(  392) = (  -0.3589744   0.3589744  -0.3589744), wk =   0.0042823
        k(  393) = (  -0.3717949   0.3717949  -0.3717949), wk =   0.0043025
        k(  394) = (  -0.3846154   0.3846154  -0.3846154), wk =   0.0043227
        k(  395) = (  -0.3974359   0.3974359  -0.3974359), wk =   0.0043429
        k(  396) = (  -0.4102564   0.4102564  -0.4102564), wk =   0.0043631
        k(  397) = (  -0.4230769   0.4230769  -0.4230769), wk =   0.0043833
        k(  398) = (  -0.4358974   0.4358974  -0.4358974), wk =   0.0044035
        k(  399) = (  -0.4487179   0.4487179  -0.4487179), wk =   0.0044237
        k(  400) = (  -0.4615385   0.4615385  -0.4615385), wk =   0.0044439
        k(  401) = (  -0.4743590   0.4743590  -0.4743590), wk =   0.0044641
        k(  402) = (  -0.4871795   0.4871795  -0.4871795), wk =   0.0044843

     Dense  grid:     9325 G-vectors     FFT dimensions: (  24,  24,  40)

     Dynamical RAM for                 wfc:       0.54 MB

     Dynamical RAM for     wfc (w. buffer):       0.54 MB

     Dynamical RAM for           str. fact:       0.43 MB

     Dynamical RAM for           local pot:       0.00 MB

     Dynamical RAM for          nlocal pot:       1.11 MB

     Dynamical RAM for                qrad:       2.66 MB

     Dynamical RAM for          rho,v,vnew:       1.91 MB

     Dynamical RAM for           G-vectors:       0.60 MB

     Dynamical RAM for          h,s,v(r/c):       0.66 MB

     Dynamical RAM for          <psi|beta>:       0.03 MB

     Dynamical RAM for                 psi:       2.14 MB

     Dynamical RAM for                hpsi:       2.14 MB

     Dynamical RAM for                spsi:       2.14 MB

     Dynamical RAM for      wfcinit/wfcrot:       1.09 MB

     Dynamical RAM for           addusdens:      26.89 MB

     Estimated static dynamical RAM per process >       8.87 MB

     Estimated max dynamical RAM per process >      35.76 MB
     Generating pointlists ...
     new r_m :   0.2774 (alat units)  1.5207 (a.u.) for type    1
     new r_m :   0.2774 (alat units)  1.5207 (a.u.) for type    2
     new r_m :   0.2774 (alat units)  1.5207 (a.u.) for type    3

     Check: negative core charge=   -0.000006

     The potential is recalculated from file :
     ./CuO.save/charge-density

     Starting wfcs from file

     Band Structure Calculation
     Davidson diagonalization with overlap

     Computing kpt #:     1  of   804
     total cpu time spent up to now is        5.7 secs

     Computing kpt #:     2  of   804
     total cpu time spent up to now is        5.7 secs

     Computing kpt #:     3  of   804
     total cpu time spent up to now is        5.7 secs

     Computing kpt #:     4  of   804
     total cpu time spent up to now is        5.8 secs

     Computing kpt #:     5  of   804
     total cpu time spent up to now is        5.8 secs

     Computing kpt #:     6  of   804
     total cpu time spent up to now is        5.9 secs

     Computing kpt #:     7  of   804
     total cpu time spent up to now is        5.9 secs

     Computing kpt #:     8  of   804
     total cpu time spent up to now is        5.9 secs

     Computing kpt #:     9  of   804
     total cpu time spent up to now is        6.0 secs

     Computing kpt #:    10  of   804
     total cpu time spent up to now is        6.0 secs

     Computing kpt #:    11  of   804
     total cpu time spent up to now is        6.1 secs

     Computing kpt #:    12  of   804
     total cpu time spent up to now is        6.1 secs

     Computing kpt #:    13  of   804
     total cpu time spent up to now is        6.1 secs

     Computing kpt #:    14  of   804
     total cpu time spent up to now is        6.2 secs

     Computing kpt #:    15  of   804
     total cpu time spent up to now is        6.2 secs

     Computing kpt #:    16  of   804
     total cpu time spent up to now is        6.2 secs

     Computing kpt #:    17  of   804
     total cpu time spent up to now is        6.3 secs

     Computing kpt #:    18  of   804
     total cpu time spent up to now is        6.3 secs

     Computing kpt #:    19  of   804
     total cpu time spent up to now is        6.4 secs

     Computing kpt #:    20  of   804
     total cpu time spent up to now is        6.4 secs

     Computing kpt #:    21  of   804
     total cpu time spent up to now is        6.4 secs

     Computing kpt #:    22  of   804
     total cpu time spent up to now is        6.5 secs

     Computing kpt #:    23  of   804
     total cpu time spent up to now is        6.5 secs

     Computing kpt #:    24  of   804
     total cpu time spent up to now is        6.6 secs

     Computing kpt #:    25  of   804
     total cpu time spent up to now is        6.6 secs

     Computing kpt #:    26  of   804
     total cpu time spent up to now is        6.6 secs

     Computing kpt #:    27  of   804
     total cpu time spent up to now is        6.7 secs

     Computing kpt #:    28  of   804
     total cpu time spent up to now is        6.7 secs

     Computing kpt #:    29  of   804
     total cpu time spent up to now is        6.8 secs

     Computing kpt #:    30  of   804
     total cpu time spent up to now is        6.8 secs

     Computing kpt #:    31  of   804
     total cpu time spent up to now is        6.8 secs

     Computing kpt #:    32  of   804
     total cpu time spent up to now is        6.9 secs

     Computing kpt #:    33  of   804
     total cpu time spent up to now is        6.9 secs

     Computing kpt #:    34  of   804
     total cpu time spent up to now is        7.0 secs

     Computing kpt #:    35  of   804
     total cpu time spent up to now is        7.0 secs

     Computing kpt #:    36  of   804
     total cpu time spent up to now is        7.0 secs

     Computing kpt #:    37  of   804
     total cpu time spent up to now is        7.1 secs

     Computing kpt #:    38  of   804
     total cpu time spent up to now is        7.1 secs

     Computing kpt #:    39  of   804
     total cpu time spent up to now is        7.2 secs

     Computing kpt #:    40  of   804
     total cpu time spent up to now is        7.2 secs

     Computing kpt #:    41  of   804
     total cpu time spent up to now is        7.2 secs

     Computing kpt #:    42  of   804
     total cpu time spent up to now is        7.3 secs

     Computing kpt #:    43  of   804
     total cpu time spent up to now is        7.3 secs

     Computing kpt #:    44  of   804
     total cpu time spent up to now is        7.4 secs

     Computing kpt #:    45  of   804
     total cpu time spent up to now is        7.4 secs

     Computing kpt #:    46  of   804
     total cpu time spent up to now is        7.4 secs

     Computing kpt #:    47  of   804
     total cpu time spent up to now is        7.5 secs

     Computing kpt #:    48  of   804
     total cpu time spent up to now is        7.5 secs

     Computing kpt #:    49  of   804
     total cpu time spent up to now is        7.5 secs

     Computing kpt #:    50  of   804
     total cpu time spent up to now is        7.6 secs

     Computing kpt #:    51  of   804
     total cpu time spent up to now is        7.6 secs

     Computing kpt #:    52  of   804
     total cpu time spent up to now is        7.7 secs

     Computing kpt #:    53  of   804
     total cpu time spent up to now is        7.7 secs

     Computing kpt #:    54  of   804
     total cpu time spent up to now is        7.7 secs

     Computing kpt #:    55  of   804
     total cpu time spent up to now is        7.8 secs

     Computing kpt #:    56  of   804
     total cpu time spent up to now is        7.8 secs

     Computing kpt #:    57  of   804
     total cpu time spent up to now is        7.9 secs

     Computing kpt #:    58  of   804
     total cpu time spent up to now is        7.9 secs

     Computing kpt #:    59  of   804
     total cpu time spent up to now is        7.9 secs

     Computing kpt #:    60  of   804
     total cpu time spent up to now is        8.0 secs

     Computing kpt #:    61  of   804
     total cpu time spent up to now is        8.0 secs

     Computing kpt #:    62  of   804
     total cpu time spent up to now is        8.1 secs

     Computing kpt #:    63  of   804
     total cpu time spent up to now is        8.1 secs

     Computing kpt #:    64  of   804
     total cpu time spent up to now is        8.1 secs

     Computing kpt #:    65  of   804
     total cpu time spent up to now is        8.2 secs

     Computing kpt #:    66  of   804
     total cpu time spent up to now is        8.2 secs

     Computing kpt #:    67  of   804
     total cpu time spent up to now is        8.3 secs

     Computing kpt #:    68  of   804
     total cpu time spent up to now is        8.3 secs

     Computing kpt #:    69  of   804
     total cpu time spent up to now is        8.3 secs

     Computing kpt #:    70  of   804
     total cpu time spent up to now is        8.4 secs

     Computing kpt #:    71  of   804
     total cpu time spent up to now is        8.4 secs

     Computing kpt #:    72  of   804
     total cpu time spent up to now is        8.5 secs

     Computing kpt #:    73  of   804
     total cpu time spent up to now is        8.5 secs

     Computing kpt #:    74  of   804
     total cpu time spent up to now is        8.5 secs

     Computing kpt #:    75  of   804
     total cpu time spent up to now is        8.6 secs

     Computing kpt #:    76  of   804
     total cpu time spent up to now is        8.6 secs

     Computing kpt #:    77  of   804
     total cpu time spent up to now is        8.7 secs

     Computing kpt #:    78  of   804
     total cpu time spent up to now is        8.7 secs

     Computing kpt #:    79  of   804
     total cpu time spent up to now is        8.7 secs

     Computing kpt #:    80  of   804
     total cpu time spent up to now is        8.8 secs

     Computing kpt #:    81  of   804
     total cpu time spent up to now is        8.8 secs

     Computing kpt #:    82  of   804
     total cpu time spent up to now is        8.9 secs

     Computing kpt #:    83  of   804
     total cpu time spent up to now is        8.9 secs

     Computing kpt #:    84  of   804
     total cpu time spent up to now is        8.9 secs

     Computing kpt #:    85  of   804
     total cpu time spent up to now is        9.0 secs

     Computing kpt #:    86  of   804
     total cpu time spent up to now is        9.0 secs

     Computing kpt #:    87  of   804
     total cpu time spent up to now is        9.1 secs

     Computing kpt #:    88  of   804
     total cpu time spent up to now is        9.1 secs

     Computing kpt #:    89  of   804
     total cpu time spent up to now is        9.1 secs

     Computing kpt #:    90  of   804
     total cpu time spent up to now is        9.2 secs

     Computing kpt #:    91  of   804
     total cpu time spent up to now is        9.2 secs

     Computing kpt #:    92  of   804
     total cpu time spent up to now is        9.3 secs

     Computing kpt #:    93  of   804
     total cpu time spent up to now is        9.3 secs

     Computing kpt #:    94  of   804
     total cpu time spent up to now is        9.3 secs

     Computing kpt #:    95  of   804
     total cpu time spent up to now is        9.4 secs

     Computing kpt #:    96  of   804
     total cpu time spent up to now is        9.4 secs

     Computing kpt #:    97  of   804
     total cpu time spent up to now is        9.5 secs

     Computing kpt #:    98  of   804
     total cpu time spent up to now is        9.5 secs

     Computing kpt #:    99  of   804
     total cpu time spent up to now is        9.5 secs

     Computing kpt #:   100  of   804
     total cpu time spent up to now is        9.6 secs

     Computing kpt #:   101  of   804
     total cpu time spent up to now is        9.6 secs

     Computing kpt #:   102  of   804
     total cpu time spent up to now is        9.7 secs

     Computing kpt #:   103  of   804
     total cpu time spent up to now is        9.7 secs

     Computing kpt #:   104  of   804
     total cpu time spent up to now is        9.7 secs

     Computing kpt #:   105  of   804
     total cpu time spent up to now is        9.8 secs

     Computing kpt #:   106  of   804
     total cpu time spent up to now is        9.8 secs

     Computing kpt #:   107  of   804
     total cpu time spent up to now is        9.9 secs

     Computing kpt #:   108  of   804
     total cpu time spent up to now is        9.9 secs

     Computing kpt #:   109  of   804
     total cpu time spent up to now is        9.9 secs

     Computing kpt #:   110  of   804
     total cpu time spent up to now is       10.0 secs

     Computing kpt #:   111  of   804
[...]

  -100.9677-100.0352 -58.6953 -58.6735 -57.6918 -57.5521 -57.5429 -57.2911
    -7.4384  -6.4423   4.5260   6.0947   6.6636   6.8116   7.4810   8.2699
     9.0730   9.5009   9.5459   9.6290   9.9349  10.1267  10.3366  10.5176
    11.6046  12.8322  15.8955  18.5614  20.7417  22.5766

     occupation numbers 
     1.0000   1.0000   1.0000   1.0000   1.0000   1.0000   1.0000   1.0000
     1.0000   1.0000   1.0000   1.0000   1.0000   1.0000   1.0000   1.0000
     1.0000   1.0000   1.0000   1.0000   1.0000   1.0000   1.0000   1.0000
     1.0000   0.0000   0.0000   0.0000   0.0000   0.0000

          k = 0.0000 0.2825-0.0956 (  1175 PWs)   bands (ev):

  -100.9676-100.0351 -58.6955 -58.6736 -57.6921 -57.5526 -57.5428 -57.2914
    -7.3761  -6.4347   4.6291   6.0717   6.5247   6.7847   7.3429   8.2027
     9.0915   9.5045   9.5560   9.6265   9.9732  10.1486  10.3702  10.5368
    11.5484  12.7794  16.1615  18.4834  20.9721  22.4080

     occupation numbers 
     1.0000   1.0000   1.0000   1.0000   1.0000   1.0000   1.0000   1.0000
     1.0000   1.0000   1.0000   1.0000   1.0000   1.0000   1.0000   1.0000
     1.0000   1.0000   1.0000   1.0000   1.0000   1.0000   1.0000   1.0000
     1.0000   0.0000   0.0000   0.0000   0.0000   0.0000

          k = 0.0000 0.3042-0.1029 (  1167 PWs)   bands (ev):

  -100.9676-100.0351 -58.6958 -58.6738 -57.6925 -57.5531 -57.5427 -57.2918
    -7.3120  -6.4268   4.7325   6.0473   6.3998   6.7582   7.2059   8.1354
     9.1117   9.5058   9.5700   9.6233  10.0100  10.1698  10.3982  10.5543
    11.4966  12.7263  16.4215  18.4019  21.1976  22.2591

     occupation numbers 
     1.0000   1.0000   1.0000   1.0000   1.0000   1.0000   1.0000   1.0000
     1.0000   1.0000   1.0000   1.0000   1.0000   1.0000   1.0000   1.0000
     1.0000   1.0000   1.0000   1.0000   1.0000   1.0000   1.0000   1.0000
     1.0000   0.0000   0.0000   0.0000   0.0000   0.0000

          k = 0.0000 0.3259-0.1103 (  1166 PWs)   bands (ev):

  -100.9675-100.0350 -58.6961 -58.6739 -57.6928 -57.5537 -57.5427 -57.2921
    -7.2469  -6.4185   4.8344   6.0210   6.2914   6.7311   7.0724   8.0672
     9.1333   9.5081   9.5846   9.6197  10.0460  10.1900  10.4200  10.5700
    11.4499  12.6736  16.6712  18.3230  21.4025  22.1292

     occupation numbers 
     1.0000   1.0000   1.0000   1.0000   1.0000   1.0000   1.0000   1.0000
     1.0000   1.0000   1.0000   1.0000   1.0000   1.0000   1.0000   1.0000
     1.0000   1.0000   1.0000   1.0000   1.0000   1.0000   1.0000   1.0000
     1.0000   0.0000   0.0000   0.0000   0.0000   0.0000

          k = 0.0000 0.3477-0.1176 (  1166 PWs)   bands (ev):

  -100.9674-100.0350 -58.6964 -58.6741 -57.6932 -57.5542 -57.5426 -57.2925
    -7.1814  -6.4101   4.9336   5.9915   6.2015   6.7015   6.9466   7.9972
     9.1559   9.5129   9.5976   9.6168  10.0814  10.2091  10.4353  10.5841
    11.4087  12.6221  16.9063  18.2515  21.5665  22.0179

     occupation numbers 
     1.0000   1.0000   1.0000   1.0000   1.0000   1.0000   1.0000   1.0000
     1.0000   1.0000   1.0000   1.0000   1.0000   1.0000   1.0000   1.0000
     1.0000   1.0000   1.0000   1.0000   1.0000   1.0000   1.0000   1.0000
     1.0000   0.0000   0.0000   0.0000   0.0000   0.0000

          k = 0.0000 0.3694-0.1250 (  1166 PWs)   bands (ev):

  -100.9674-100.0349 -58.6967 -58.6742 -57.6935 -57.5548 -57.5426 -57.2929
    -7.1162  -6.4017   5.0288   5.9582   6.1312   6.6615   6.8389   7.9251
     9.1793   9.5202   9.6040   9.6190  10.1161  10.2267  10.4440  10.5972
    11.3733  12.5726  17.1222  18.1911  21.6624  21.9255

     occupation numbers 
     1.0000   1.0000   1.0000   1.0000   1.0000   1.0000   1.0000   1.0000
     1.0000   1.0000   1.0000   1.0000   1.0000   1.0000   1.0000   1.0000
     1.0000   1.0000   1.0000   1.0000   1.0000   1.0000   1.0000   1.0000
     1.0000   0.0000   0.0000   0.0000   0.0000   0.0000

          k = 0.0000 0.3911-0.1323 (  1163 PWs)   bands (ev):

  -100.9673-100.0348 -58.6971 -58.6744 -57.6939 -57.5554 -57.5425 -57.2932
    -7.0519  -6.3932   5.1190   5.9231   6.0780   6.5946   6.7683   7.8508
     9.2029   9.5296   9.6022   9.6278  10.1493  10.2424  10.4468  10.6096
    11.3440  12.5263  17.3139  18.1446  21.6663  21.8527

     occupation numbers 
     1.0000   1.0000   1.0000   1.0000   1.0000   1.0000   1.0000   1.0000
     1.0000   1.0000   1.0000   1.0000   1.0000   1.0000   1.0000   1.0000
     1.0000   1.0000   1.0000   1.0000   1.0000   1.0000   1.0000   1.0000
     1.0000   0.0000   0.0000   0.0000   0.0000   0.0000

          k = 0.0000 0.4129-0.1397 (  1162 PWs)   bands (ev):

  -100.9673-100.0348 -58.6974 -58.6745 -57.6942 -57.5560 -57.5424 -57.2936
    -6.9890  -6.3850   5.2032   5.8913   6.0357   6.5028   6.7356   7.7744
     9.2262   9.5393   9.5993   9.6370  10.1796  10.2552  10.4455  10.6218
    11.3207  12.4845  17.4764  18.1142  21.5904  21.7895

     occupation numbers 
     1.0000   1.0000   1.0000   1.0000   1.0000   1.0000   1.0000   1.0000
     1.0000   1.0000   1.0000   1.0000   1.0000   1.0000   1.0000   1.0000
     1.0000   1.0000   1.0000   1.0000   1.0000   1.0000   1.0000   1.0000
     1.0000   0.0000   0.0000   0.0000   0.0000   0.0000

          k = 0.0000 0.4346-0.1470 (  1155 PWs)   bands (ev):

  -100.9672-100.0347 -58.6978 -58.6747 -57.6945 -57.5566 -57.5423 -57.2939
    -6.9281  -6.3770   5.2810   5.8683   5.9963   6.4076   6.7227   7.6968
     9.2487   9.5470   9.5983   9.6452  10.2050  10.2639  10.4431  10.6334
    11.3036  12.4486  17.6055  18.1001  21.4709  21.7296

     occupation numbers 
     1.0000   1.0000   1.0000   1.0000   1.0000   1.0000   1.0000   1.0000
     1.0000   1.0000   1.0000   1.0000   1.0000   1.0000   1.0000   1.0000
     1.0000   1.0000   1.0000   1.0000   1.0000   1.0000   1.0000   1.0000
     1.0000   0.0000   0.0000   0.0000   0.0000   0.0000

          k = 0.0000 0.4563-0.1544 (  1160 PWs)   bands (ev):

  -100.9672-100.0347 -58.6981 -58.6748 -57.6949 -57.5571 -57.5423 -57.2942
    -6.8697  -6.3694   5.3522   5.8569   5.9531   6.3223   6.7199   7.6187
     9.2701   9.5501   9.6003   9.6533  10.2218  10.2679  10.4440  10.6443
    11.2926  12.4196  17.7001  18.0993  21.3336  21.6757

     occupation numbers 
     1.0000   1.0000   1.0000   1.0000   1.0000   1.0000   1.0000   1.0000
     1.0000   1.0000   1.0000   1.0000   1.0000   1.0000   1.0000   1.0000
     1.0000   1.0000   1.0000   1.0000   1.0000   1.0000   1.0000   1.0000
     1.0000   0.0000   0.0000   0.0000   0.0000   0.0000

          k = 0.0000 0.4780-0.1617 (  1163 PWs)   bands (ev):

  -100.9671-100.0346 -58.6984 -58.6749 -57.6952 -57.5577 -57.5422 -57.2946
    -6.8141  -6.3623   5.4171   5.8573   5.9023   6.2538   6.7230   7.5418
     9.2898   9.5488   9.6032   9.6624  10.2229  10.2715  10.4519  10.6541
    11.2874  12.3983  17.7637  18.1043  21.1947  21.6279

     occupation numbers 
     1.0000   1.0000   1.0000   1.0000   1.0000   1.0000   1.0000   1.0000
     1.0000   1.0000   1.0000   1.0000   1.0000   1.0000   1.0000   1.0000
     1.0000   1.0000   1.0000   1.0000   1.0000   1.0000   1.0000   1.0000
     1.0000   0.0001   0.0000   0.0000   0.0000   0.0000

          k = 0.0000 0.4998-0.1691 (  1161 PWs)   bands (ev):

  -100.9671-100.0345 -58.6988 -58.6750 -57.6955 -57.5583 -57.5421 -57.2949
    -6.7618  -6.3558   5.4767   5.8337   5.8777   6.2040   6.7293   7.4676
     9.3074   9.5451   9.6032   9.6736  10.2052  10.2787  10.4671  10.6628
    11.2870  12.3849  17.8019  18.1060  21.0632  21.5851

     occupation numbers 
     1.0000   1.0000   1.0000   1.0000   1.0000   1.0000   1.0000   1.0000
     1.0000   1.0000   1.0000   1.0000   1.0000   1.0000   1.0000   1.0000
     1.0000   1.0000   1.0000   1.0000   1.0000   1.0000   1.0000   1.0000
     1.0000   0.0004   0.0000   0.0000   0.0000   0.0000

          k = 0.0000 0.5215-0.1764 (  1167 PWs)   bands (ev):

  -100.9670-100.0345 -58.6991 -58.6751 -57.6958 -57.5588 -57.5421 -57.2952
    -6.7129  -6.3500   5.5320   5.7669   5.8994   6.1711   6.7364   7.3986
     9.3225   9.5409   9.5982   9.6867  10.1762  10.2867  10.4874  10.6710
    11.2901  12.3790  17.8160  18.1005  20.9441  21.5466

     occupation numbers 
     1.0000   1.0000   1.0000   1.0000   1.0000   1.0000   1.0000   1.0000
     1.0000   1.0000   1.0000   1.0000   1.0000   1.0000   1.0000   1.0000
     1.0000   1.0000   1.0000   1.0000   1.0000   1.0000   1.0000   1.0000
     1.0000   0.0006   0.0000   0.0000   0.0000   0.0000

          k = 0.0000 0.5432-0.1838 (  1166 PWs)   bands (ev):

  -100.9670-100.0344 -58.6994 -58.6752 -57.6961 -57.5593 -57.5420 -57.2955
    -6.6675  -6.3448   5.5831   5.6977   5.9280   6.1530   6.7413   7.3374
     9.3345   9.5370   9.5875   9.7008  10.1432  10.2940  10.5103  10.6793
    11.2952  12.3794  17.8011  18.0916  20.8406  21.5116

     occupation numbers 
     1.0000   1.0000   1.0000   1.0000   1.0000   1.0000   1.0000   1.0000
     1.0000   1.0000   1.0000   1.0000   1.0000   1.0000   1.0000   1.0000
     1.0000   1.0000   1.0000   1.0000   1.0000   1.0000   1.0000   1.0000
     1.0000   0.0006   0.0000   0.0000   0.0000   0.0000

          k = 0.0000 0.5650-0.1912 (  1169 PWs)   bands (ev):

  -100.9669-100.0344 -58.6998 -58.6753 -57.6963 -57.5599 -57.5420 -57.2957
    -6.6259  -6.3405   5.6079   5.6545   5.9556   6.1500   6.7416   7.2869
     9.3427   9.5327   9.5717   9.7154  10.1120  10.3007  10.5335  10.6891
    11.3003  12.3842  17.7519  18.0845  20.7547  21.4794

     occupation numbers 
     1.0000   1.0000   1.0000   1.0000   1.0000   1.0000   1.0000   1.0000
     1.0000   1.0000   1.0000   1.0000   1.0000   1.0000   1.0000   1.0000
     1.0000   1.0000   1.0000   1.0000   1.0000   1.0000   1.0000   1.0000
     1.0000   0.0004   0.0000   0.0000   0.0000   0.0000

          k = 0.0000 0.5867-0.1985 (  1171 PWs)   bands (ev):

  -100.9669-100.0344 -58.7001 -58.6754 -57.6966 -57.5603 -57.5419 -57.2960
    -6.5880  -6.3370   5.5545   5.6913   5.9753   6.1647   6.7355   7.2490
     9.3466   9.5227   9.5560   9.7307  10.0870  10.3073  10.5550  10.7018
    11.3041  12.3914  17.6716  18.0770  20.6885  21.4487

     occupation numbers 
     1.0000   1.0000   1.0000   1.0000   1.0000   1.0000   1.0000   1.0000
     1.0000   1.0000   1.0000   1.0000   1.0000   1.0000   1.0000   1.0000
     1.0000   1.0000   1.0000   1.0000   1.0000   1.0000   1.0000   1.0000
     1.0000   0.0002   0.0000   0.0000   0.0000   0.0000

          k = 0.0000 0.6084-0.2059 (  1168 PWs)   bands (ev):

  -100.9668-100.0343 -58.7003 -58.6755 -57.6968 -57.5608 -57.5419 -57.2962
    -6.5537  -6.3343   5.4972   5.7326   5.9862   6.1966   6.7233   7.2242
     9.3448   9.4986   9.5499   9.7474  10.0710  10.3143  10.5734  10.7186
    11.3052  12.3983  17.5696  18.0618  20.6430  21.4184

     occupation numbers 
     1.0000   1.0000   1.0000   1.0000   1.0000   1.0000   1.0000   1.0000
     1.0000   1.0000   1.0000   1.0000   1.0000   1.0000   1.0000   1.0000
     1.0000   1.0000   1.0000   1.0000   1.0000   1.0000   1.0000   1.0000
     1.0000   0.0001   0.0000   0.0000   0.0000   0.0000

          k = 0.0000 0.6302-0.2132 (  1167 PWs)   bands (ev):

  -100.9668-100.0343 -58.7006 -58.6756 -57.6970 -57.5612 -57.5418 -57.2964
    -6.5230  -6.3324   5.4464   5.7627   5.9964   6.2396   6.7076   7.2106
     9.3350   9.4674   9.5502   9.7665  10.0648  10.3223  10.5883  10.7399
    11.3028  12.4025  17.4562  18.0316  20.6185  21.3872

     occupation numbers 
     1.0000   1.0000   1.0000   1.0000   1.0000   1.0000   1.0000   1.0000
     1.0000   1.0000   1.0000   1.0000   1.0000   1.0000   1.0000   1.0000
     1.0000   1.0000   1.0000   1.0000   1.0000   1.0000   1.0000   1.0000
     1.0000   0.0001   0.0000   0.0000   0.0000   0.0000

          k = 0.0000 0.6519-0.2206 (  1164 PWs)   bands (ev):

  -100.9667-100.0342 -58.7009 -58.6756 -57.6972 -57.5616 -57.5418 -57.2966
    -6.4955  -6.3313   5.4037   5.7734   6.0159   6.2867   6.6926   7.2048
     9.3134   9.4398   9.5523   9.7887  10.0676  10.3320  10.6000  10.7653
    11.2963  12.4020  17.3404  17.9820  20.6138  21.3540

     occupation numbers 
     1.0000   1.0000   1.0000   1.0000   1.0000   1.0000   1.0000   1.0000
     1.0000   1.0000   1.0000   1.0000   1.0000   1.0000   1.0000   1.0000
     1.0000   1.0000   1.0000   1.0000   1.0000   1.0000   1.0000   1.0000
     1.0000   0.0001   0.0000   0.0000   0.0000   0.0000

          k = 0.0000 0.6736-0.2279 (  1159 PWs)   bands (ev):

  -100.9667-100.0342 -58.7011 -58.6757 -57.6973 -57.5619 -57.5417 -57.2967
    -6.4713  -6.3311   5.3695   5.7623   6.0482   6.3326   6.6830   7.2033
     9.2792   9.4213   9.5544   9.8141  10.0779  10.3439  10.6094  10.7935
    11.2855  12.3952  17.2300  17.9121  20.6264  21.3184

     occupation numbers 
     1.0000   1.0000   1.0000   1.0000   1.0000   1.0000   1.0000   1.0000
     1.0000   1.0000   1.0000   1.0000   1.0000   1.0000   1.0000   1.0000
     1.0000   1.0000   1.0000   1.0000   1.0000   1.0000   1.0000   1.0000
     1.0000   0.0002   0.0000   0.0000   0.0000   0.0000

          k = 0.0000 0.6953-0.2353 (  1155 PWs)   bands (ev):

  -100.9667-100.0342 -58.7013 -58.6757 -57.6975 -57.5622 -57.5417 -57.2969
    -6.4499  -6.3317   5.3444   5.7342   6.0884   6.3729   6.6825   7.2027
     9.2376   9.4104   9.5557   9.8421  10.0938  10.3589  10.6170  10.8235
    11.2704  12.3813  17.1315  17.8234  20.6527  21.2802

     occupation numbers 
     1.0000   1.0000   1.0000   1.0000   1.0000   1.0000   1.0000   1.0000
     1.0000   1.0000   1.0000   1.0000   1.0000   1.0000   1.0000   1.0000
     1.0000   1.0000   1.0000   1.0000   1.0000   1.0000   1.0000   1.0000
     1.0000   0.0005   0.0000   0.0000   0.0000   0.0000

          k = 0.0000 0.7171-0.2426 (  1155 PWs)   bands (ev):

  -100.9667-100.0341 -58.7015 -58.6758 -57.6976 -57.5625 -57.5416 -57.2970
    -6.4312  -6.3330   5.3281   5.6953   6.1304   6.4051   6.6934   7.2009
     9.1947   9.4038   9.5558   9.8714  10.1132  10.3776  10.6232  10.8543
    11.2510  12.3606  17.0500  17.7195  20.6886  21.2396

     occupation numbers 
     1.0000   1.0000   1.0000   1.0000   1.0000   1.0000   1.0000   1.0000
     1.0000   1.0000   1.0000   1.0000   1.0000   1.0000   1.0000   1.0000
     1.0000   1.0000   1.0000   1.0000   1.0000   1.0000   1.0000   1.0000
     1.0000   0.0021   0.0000   0.0000   0.0000   0.0000

          k = 0.0000 0.7388-0.2500 (  1153 PWs)   bands (ev):

  -100.9666-100.0341 -58.7016 -58.6758 -57.6977 -57.5628 -57.5416 -57.2971
    -6.4149  -6.3352   5.3208   5.6504   6.1700   6.4287   6.7149   7.1964
     9.1550   9.3995   9.5548   9.9001  10.1341  10.4010  10.6277  10.8852
    11.2278  12.3344  16.9898  17.6055  20.7306  21.1972

     occupation numbers 
     1.0000   1.0000   1.0000   1.0000   1.0000   1.0000   1.0000   1.0000
     1.0000   1.0000   1.0000   1.0000   1.0000   1.0000   1.0000   1.0000
     1.0000   1.0000   1.0000   1.0000   1.0000   1.0000   1.0000   1.0000
     1.0000   0.0102   0.0000   0.0000   0.0000   0.0000

          k = 0.0000 0.7605-0.2573 (  1151 PWs)   bands (ev):

  -100.9666-100.0341 -58.7017 -58.6758 -57.6978 -57.5629 -57.5416 -57.2972
    -6.4009  -6.3381   5.3219   5.6029   6.2042   6.4452   6.7433   7.1888
     9.1207   9.3965   9.5530   9.9262  10.1542  10.4292  10.6297  10.9157
    11.2014  12.3052  16.9534  17.4871  20.7757  21.1536

     occupation numbers 
     1.0000   1.0000   1.0000   1.0000   1.0000   1.0000   1.0000   1.0000
     1.0000   1.0000   1.0000   1.0000   1.0000   1.0000   1.0000   1.0000
     1.0000   1.0000   1.0000   1.0000   1.0000   1.0000   1.0000   1.0000
     1.0000   0.0435   0.0000   0.0000   0.0000   0.0000

          k = 0.0000 0.7823-0.2647 (  1157 PWs)   bands (ev):

  -100.9666-100.0341 -58.7018 -58.6758 -57.6979 -57.5631 -57.5416 -57.2973
    -6.3888  -6.3417   5.3309   5.5557   6.2315   6.4566   6.7737   7.1788
     9.0933   9.3944   9.5508   9.9478  10.1716  10.4612  10.6281  10.9452
    11.1731  12.2764  16.9421  17.3703  20.8216  21.1095

     occupation numbers 
     1.0000   1.0000   1.0000   1.0000   1.0000   1.0000   1.0000   1.0000
     1.0000   1.0000   1.0000   1.0000   1.0000   1.0000   1.0000   1.0000
     1.0000   1.0000   1.0000   1.0000   1.0000   1.0000   1.0000   1.0000
     1.0000   0.1330   0.0000   0.0000   0.0000   0.0000

          k = 0.0000 0.8040-0.2720 (  1155 PWs)   bands (ev):

  -100.9666-100.0341 -58.7019 -58.6759 -57.6979 -57.5632 -57.5416 -57.2973
    -6.3786  -6.3459   5.3465   5.5118   6.2510   6.4645   6.8010   7.1681
     9.0735   9.3929   9.5487   9.9638  10.1848  10.4939  10.6223  10.9727
    11.1450  12.2519  16.9553  17.2614  20.8667  21.0660

     occupation numbers 
     1.0000   1.0000   1.0000   1.0000   1.0000   1.0000   1.0000   1.0000
     1.0000   1.0000   1.0000   1.0000   1.0000   1.0000   1.0000   1.0000
     1.0000   1.0000   1.0000   1.0000   1.0000   1.0000   1.0000   1.0000
     1.0000   0.2734   0.0000   0.0000   0.0000   0.0000

          k = 0.0000 0.8257-0.2794 (  1149 PWs)   bands (ev):

  -100.9666-100.0341 -58.7020 -58.6759 -57.6979 -57.5633 -57.5416 -57.2973
    -6.3706  -6.3504   5.3652   5.4757   6.2627   6.4692   6.8202   7.1597
     9.0615   9.3921   9.5472   9.9736  10.1929  10.5218  10.6132  10.9951
    11.1214  12.2354  16.9890  17.1688  20.9082  21.0256

     occupation numbers 
     1.0000   1.0000   1.0000   1.0000   1.0000   1.0000   1.0000   1.0000
     1.0000   1.0000   1.0000   1.0000   1.0000   1.0000   1.0000   1.0000
     1.0000   1.0000   1.0000   1.0000   1.0000   1.0000   1.0000   1.0000
     1.0000   0.3978   0.0000   0.0000   0.0000   0.0000

     the Fermi energy is    12.2229 ev

     Writing output data file ./CuO.save/
 
     init_run     :      1.49s CPU      4.98s WALL (       1 calls)
     electrons    :     31.03s CPU     32.91s WALL (       1 calls)

     Called by init_run:
     wfcinit      :      0.70s CPU      4.17s WALL (       1 calls)
     potinit      :      0.02s CPU      0.02s WALL (       1 calls)
     hinit0       :      0.65s CPU      0.65s WALL (       1 calls)

     Called by electrons:
     c_bands      :     31.01s CPU     32.84s WALL (       1 calls)
     v_of_rho     :      0.02s CPU      0.02s WALL (       1 calls)
     v_h          :      0.00s CPU      0.00s WALL (       1 calls)
     v_xc         :      0.02s CPU      0.02s WALL (       1 calls)
     newd         :      0.04s CPU      0.05s WALL (       1 calls)

     Called by c_bands:
     init_us_2    :      0.30s CPU      0.40s WALL (     804 calls)
     cegterg      :     27.49s CPU     27.69s WALL (     804 calls)

     Called by sum_band:

     Called by *egterg:
     h_psi        :     23.13s CPU     23.31s WALL (    1608 calls)
     s_psi        :      0.79s CPU      0.80s WALL (    1608 calls)
     g_psi        :      0.20s CPU      0.20s WALL (     804 calls)
     cdiaghg      :      1.06s CPU      1.06s WALL (     804 calls)
     cegterg:over :      0.84s CPU      0.84s WALL (     804 calls)
     cegterg:upda :      0.43s CPU      0.43s WALL (     804 calls)
     cegterg:last :      0.38s CPU      0.38s WALL (     804 calls)

     Called by h_psi:
     h_psi:calbec :      0.84s CPU      0.84s WALL (    1608 calls)
     vloc_psi     :     21.41s CPU     21.59s WALL (    1608 calls)
     add_vuspsi   :      0.80s CPU      0.80s WALL (    1608 calls)

     General routines
     calbec       :      0.83s CPU      0.84s WALL (    1608 calls)
     fft          :      0.01s CPU      0.01s WALL (      21 calls)
     fftw         :     18.99s CPU     19.14s WALL (   96480 calls)
     davcio       :      0.31s CPU      2.32s WALL (    3216 calls)
 
     Parallel routines
 
     PWSCF        :     33.46s CPU     40.93s WALL

 
   This run was terminated on:  16:30:43  28Apr2020            

=------------------------------------------------------------------------------=
   JOB DONE.
=------------------------------------------------------------------------------=
