 +-------------------------------------------------+
 |                                                 |
 |      CCC   AA    SSS  TTTTT  EEEEE  PPPP        |
 |     C     A  A  S       T    E      P   P       |
 |     C     AAAA   SS     T    EEE    PPPP        |
 |     C     A  A     S    T    E      P           |
 |      CCC  A  A  SSS     T    EEEEE  P           |
 |                                                 |
 +-------------------------------------------------+
 |                                                 |
 | Welcome to Academic Release CASTEP version 19.11|          
 | Ab Initio Total Energy Program                  |
 |                                                 |
 | Authors:                                        |
 | M. Segall, M. Probert, C. Pickard, P. Hasnip,   |
 | S. Clark, K. Refson, J. R. Yates, M. Payne      |
 |                                                 |
 | Contributors:                                   |
 | P. Lindan, P. Haynes, J. White, V. Milman,      |
 | N. Govind, M. Gibson, P. Tulip, V. Cocula,      |
 | B. Montanari, D. Quigley, M. Glover,            |
 | L. Bernasconi, A. Perlov, M. Plummer,           |
 | E. McNellis, J. Meyer, J. Gale, D. Jochym       |
 | J. Aarons, B. Walker, R. Gillen, D. Jones       |
 | T. Green, I. J. Bush, C. J. Armstrong,          |
 | E. J. Higgins, E. L. Brown, M. S. McFly,        |
 | J. Wilkins, B-C. Shih, P. J. P. Byrne           |
 |                                                 |
 | Copyright (c) 2000 - 2018                       |
 |                                                 |
 |     Distributed under the terms of an           |
 |     Agreement between the United Kingdom        |
 |     Car-Parrinello (UKCP) Consortium,           |
 |     Daresbury Laboratory and Accelrys, Inc.     |
 |                                                 |
 | Please cite                                     |
 |                                                 |
 |     "First principles methods using CASTEP"     |
 |                                                 |
 |         Zeitschrift fuer Kristallographie       |
 |           220(5-6) pp. 567-570 (2005)           |
 |                                                 |
 | S. J. Clark, M. D. Segall, C. J. Pickard,       |
 | P. J. Hasnip, M. J. Probert, K. Refson,         |
 | M. C. Payne                                     |
 |                                                 |
 |       in all publications arising from          |
 |              your use of CASTEP                 |
 |                                                 |
 +-------------------------------------------------+
 |                                                 |
 |              http://www.castep.org              |
 |                                                 |
 +-------------------------------------------------+
 
 
 
 Compiled for linux_x86_64_ifort19 on Wed, 22 Jan 2020 01:48:15 +0000
 from code version Version unavailable
 Compiler: Intel Fortran 19.0.4.243; Optimisation: fast
 MATHLIBS: Intel MKL(2019.0.4) (LAPACK version 3.7.0)
 FFT Lib : mkl
 Fundamental constants values: CODATA 2014
 
 Run started: Tue, 08 Dec 2020 15:10:14 +0000
 
 Pseudo atomic calculation performed for O 2s2 2p4
 
 Converged in 44 iterations to a total energy of -431.2467 eV
 
 Pseudo atomic calculation performed for Cu 3s2 3p6 3d10 4s1
 
 Converged in 104 iterations to a total energy of -5484.8323 eV
 
 Pseudo atomic calculation performed for La 5s2 5p6 5d1 6s2
 
 Converged in 37 iterations to a total energy of -1385.0358 eV
 Calculation parallelised over 30 processes.
 Data is distributed by k-point(30-way)
 Each process may use up to 4 threads.

 ************************************ Title ************************************
 

 ***************************** General Parameters ******************************
  
 output verbosity                               : normal  (1)
 write checkpoint data to                       : La2CuO4_LTO.check
 type of calculation                            : Electronic Spectroscopy
 stress calculation                             : on
 density difference calculation                 : off
 electron localisation func (ELF) calculation   : off
 Hirshfeld analysis                             : off
 unlimited duration calculation
 timing information                             : on
 memory usage estimate                          : on
 write extra output files                       : on
 write final potential to formatted file        : off
 write final density to formatted file          : off
 write structure in CELL formatted file         : on
 write BibTeX reference list                    : off
 write OTFG pseudopotential files               : off
 write electrostatic potential file             : off
 write bands file                               : on
 checkpoint writing                             : both castep_bin and check files
  
 output         length unit                     : A
 output           mass unit                     : amu
 output           time unit                     : ps
 output         charge unit                     : e
 output           spin unit                     : hbar/2
 output         energy unit                     : eV
 output          force unit                     : eV/A
 output       velocity unit                     : A/ps
 output       pressure unit                     : GPa
 output     inv_length unit                     : 1/A
 output      frequency unit                     : cm-1
 output force constant unit                     : eV/A**2
 output         volume unit                     : A**3
 output   IR intensity unit                     : (D/A)**2/amu
 output         dipole unit                     : D
 output         efield unit                     : eV/A/e
 output        entropy unit                     : J/mol/K
  
 wavefunctions paging                           : none
 random number generator seed                   : randomised (151014471)
 data distribution                              : k-point only
 optimization strategy                          : maximize speed(+++)

 *********************** Exchange-Correlation Parameters ***********************
  
 using functional                               : PBE for solids (2008)
 relativistic treatment                         : Koelling-Harmon
 DFT+D: Semi-empirical dispersion correction    : off

 ************************* Pseudopotential Parameters **************************
  
 pseudopotential representation                 : reciprocal space
 <beta|phi> representation                      : reciprocal space
 spin-orbit coupling                            : off

 **************************** Basis Set Parameters *****************************
  
 plane wave basis set cut-off                   :   816.3416   eV
 size of standard grid                          :     2.0000
 size of   fine   gmax                          :    29.2755   1/A
 finite basis set correction                    : automatic
 number of sample energies                      :          3
           sample  spacing                      :     5.0000   eV

 **************************** Electronic Parameters ****************************
  
 number of  electrons                           :  130.0    
 net charge of system                           :  0.000    
 net spin   of system                           :  0.000    
 number of  up  spins                           :  65.00    
 number of down spins                           :  65.00    
 treating system as spin-polarized
 number of bands                                :         78

 ********************* Electronic Minimization Parameters **********************
  
 Method: Treating system as metallic with density mixing treatment of electrons,
         and number of  SD  steps               :          1
         and number of  CG  steps               :          4
  
 total energy / atom convergence tol.           : 0.1000E-09   eV
 eigen-energy convergence tolerance             : 0.2154E-10   eV
 max force / atom convergence tol.              : 0.1000E-04   eV/A
 convergence tolerance window                   :          3   cycles
 max. number of SCF cycles                      :        100
 number of fixed-spin iterations                :         10
 smearing scheme                                : Gaussian
 smearing width                                 : 0.4309E-02   eV
 Fermi energy convergence tolerance             : 0.2721E-13   eV
 periodic dipole correction                     : NONE

 ************************** Density Mixing Parameters **************************
  
 density-mixing scheme                          : Broyden
 max. length of mixing history                  :         20
 charge density mixing amplitude                : 0.2000    
   spin density mixing amplitude                :  2.000    
 cut-off energy for mixing                      :  816.3       eV

 *********************** Population Analysis Parameters ************************
  
 Population analysis with cutoff                :  3.000       A
 Population analysis output                     : summary and pdos components
 Partial DOS weights calculated

 ********************* Electronic Spectroscopy Parameters **********************
  
 electronic spectroscopy with theory level      : DFT       
 spectroscopy calculation                       : density of states
 max. number of iterations                      :         60
 max. steps per iteration                       :          5
 number of bands / k-point                      :        123
 band convergence tolerance                     : 0.1000E-05   eV
 write orbitals file                            : off

 *******************************************************************************
  
 
                           -------------------------------
                                      Unit Cell
                           -------------------------------
        Real Lattice(A)                      Reciprocal Lattice(1/A)
     2.6673000     0.0000000    -6.5586000        1.177817513   0.000000000  -0.479003546
     0.0000000     5.4148000     0.0000000        0.000000000   1.160372554   0.000000000
     2.6673000     0.0000000     6.5586000        1.177817513   0.000000000   0.479003546
 
                       Lattice parameters(A)       Cell Angles
                    a =      7.080235          alpha =   90.000000
                    b =      5.414800          beta  =  135.738088
                    c =      7.080235          gamma =   90.000000
 
                       Current cell volume =           189.450356       A**3
                                   density =             4.279270   AMU/A**3
                                           =             7.105895     g/cm^3
 
                           -------------------------------
                                     Cell Contents
                           -------------------------------
                         Total number of ions in cell =   14
                      Total number of species in cell =    3
                        Max number of any one species =    8
 
            xxxxxxxxxxxxxxxxxxxxxxxxxxxxxxxxxxxxxxxxxxxxxxxxxxxxxxxxxxxx
            x  Element    Atom        Fractional coordinates of atoms  x
            x            Number           u          v          w      x
            x----------------------------------------------------------x
            x  O            1         0.258400   0.250000   0.241600   x 
            x  O            2         0.741600   0.750000   0.758400   x 
            x  O            3         0.758400   0.250000   0.741600   x 
            x  O            4         0.241600   0.750000   0.258400   x 
            x  O            5         0.816300   0.040400   0.183700   x 
            x  O            6         0.183700   0.959600   0.816300   x 
            x  O            7         0.316300   0.459600   0.683700   x 
            x  O            8         0.683700   0.540400   0.316300   x 
            x  Cu           1         0.000000   0.000000   0.000000   x 
            x  Cu           2         0.500000   0.500000   0.500000   x 
            x  La           1         0.638400   0.991700   0.361600   x 
            x  La           2         0.361600   0.008300   0.638400   x 
            x  La           3         0.138400   0.508300   0.861600   x 
            x  La           4         0.861600   0.491700   0.138400   x 
            xxxxxxxxxxxxxxxxxxxxxxxxxxxxxxxxxxxxxxxxxxxxxxxxxxxxxxxxxxxx
 
 
                         No user defined ionic velocities
 
                           -------------------------------
                                   Details of Species
                           -------------------------------
 
                               Mass of species in AMU
                                    O   15.9994000
                                    Cu   63.5460000
                                    La  138.9055000
 
                          Electric Quadrupole Moment (Barn)
                                    O   -0.0255800 Isotope 17
                                    Cu   -0.2200000 Isotope 63
                                    La    0.2000000 Isotope139
         xxxxxxxxxxxxxxxxxxxxxxxxxxxxxxxxxxxxxxxxxxxxxxxxxxxxxxxxxxxxxxxxxxxxxx
         |  Element    Atom         Initial            Initial magnetic       |
         |            Number    spin polarization        moment (uB)          |
         |--------------------------------------------------------------------|
         | O              1         0.000000              0.000               |
         | O              2         0.000000              0.000               |
         | O              3         0.000000              0.000               |
         | O              4         0.000000              0.000               |
         | O              5         0.000000              0.000               |
         | O              6         0.000000              0.000               |
         | O              7         0.000000              0.000               |
         | O              8         0.000000              0.000               |
         | Cu             1         0.052632              1.000               |
         | Cu             2        -0.052632             -1.000               |
         | La             1         0.000000              0.000               |
         | La             2         0.000000              0.000               |
         | La             3         0.000000              0.000               |
         | La             4         0.000000              0.000               |
         xxxxxxxxxxxxxxxxxxxxxxxxxxxxxxxxxxxxxxxxxxxxxxxxxxxxxxxxxxxxxxxxxxxxxx
 


         Quantisation axis:    1.00000   0.00000   1.00000

         Units for Hubbard U values are eV
         xxxxxxxxxxxxxxxxxxxxxxxxxxxxxxxxxxxxxxxxxxxxxxxxxxxxxxxxxxxxxxxxxxxx
         |  Element     Atom     Hubbard U   values by orbital type         |
         |             Number      s          p          d          f       |
         |------------------------------------------------------------------|
         |O             1         0.00000    0.00000    0.00000    0.00000  |
         |O             2         0.00000    0.00000    0.00000    0.00000  |
         |O             3         0.00000    0.00000    0.00000    0.00000  |
         |O             4         0.00000    0.00000    0.00000    0.00000  |
         |O             5         0.00000    0.00000    0.00000    0.00000  |
         |O             6         0.00000    0.00000    0.00000    0.00000  |
         |O             7         0.00000    0.00000    0.00000    0.00000  |
         |O             8         0.00000    0.00000    0.00000    0.00000  |
         |Cu            1         0.00000    0.00000    6.00000    0.00000  |
         |Cu            2         0.00000    0.00000    6.00000    0.00000  |
         |La            1         0.00000    0.00000    0.00000    0.00000  |
         |La            2         0.00000    0.00000    0.00000    0.00000  |
         |La            3         0.00000    0.00000    0.00000    0.00000  |
         |La            4         0.00000    0.00000    0.00000    0.00000  |
         xxxxxxxxxxxxxxxxxxxxxxxxxxxxxxxxxxxxxxxxxxxxxxxxxxxxxxxxxxxxxxxxxxxx
 
 
                          Files used for pseudopotentials:
                                    O o_pbesol_v1.2.uspp.F.UPF
                                    Cu cu_pbesol_v1.2.uspp.F.UPF
                                    La la_pbesol_v1.uspp.F.UPF
 
                           -------------------------------
                              k-Points For BZ Sampling
                           -------------------------------
                       MP grid size for SCF calculation is  5  4  5
                            with an offset of   0.100  0.000  0.100
                       Number of kpoints used =            30
 
                           -------------------------------
                               Symmetry and Constraints
                           -------------------------------
 
                      Maximum deviation from symmetry = 0.940008E-15     ANG
 
                      Number of symmetry operations   =           4
                      Number of ionic constraints     =           3
                      Point group of crystal =     5: C2h, 2/m, 2/m
                      Space group of crystal =    64: Cmce, -C 2bc 2
 
             Set iprint > 1 for details on symmetry rotations/translations
 
                         Centre of mass is constrained
             Set iprint > 1 for details of linear ionic constraints
 
                         Number of cell constraints= 3
                         Cell constraints are:  1 2 1 0 5 0
 
                         External pressure/stress (GPa)
                          0.00000   0.00000   0.00000
                                    0.00000   0.00000
                                              0.00000
  
+---------------- MEMORY AND SCRATCH DISK ESTIMATES PER PROCESS --------------+
|                                                     Memory          Disk    |
| Baseline code, static data and system overhead     3380.0 MB         0.0 MB |
| BLAS internal memory storage                          0.0 MB         0.0 MB |
| Model and support data                             1907.9 MB         0.0 MB |
| Electronic energy minimisation requirements         160.3 MB         0.0 MB |
| Force calculation requirements                       61.9 MB         0.0 MB |
| Stress calculation requirements                      61.9 MB         0.0 MB |
|                                               ----------------------------- |
| Approx. total storage required per process         5448.3 MB         0.0 MB |
|                                                                             |
| Requirements will fluctuate during execution and may exceed these estimates |
+-----------------------------------------------------------------------------+
Calculating finite basis set correction with  3 cut-off energies.
Calculating total energy with cut-off of  806.342 eV.
 
 Pseudo atomic calculation performed for O 2s2 2p4
 
 Converged in 44 iterations to a total energy of -431.2467 eV
 
 Pseudo atomic calculation performed for Cu 3s2 3p6 3d10 4s1
 
 Converged in 104 iterations to a total energy of -5484.8323 eV
 
 Pseudo atomic calculation performed for La 5s2 5p6 5d1 6s2
 
 Converged in 37 iterations to a total energy of -1385.0358 eV
------------------------------------------------------------------------ <-- SCF
SCF loop      Energy           Fermi           Energy gain       Timer   <-- SCF
                               energy          per atom          (sec)   <-- SCF
------------------------------------------------------------------------ <-- SCF
Initial  -1.90556646E+004  0.00000000E+000                        47.34  <-- SCF
      1  -1.95928552E+004  9.79783746E+000   3.83707563E+001      78.19  <-- SCF
          Max force change        2.607E+000                             <-- SCF
      2  -1.99836038E+004  1.01527799E+001   2.79106143E+001     128.25  <-- SCF
          Max force change        2.803E+000                             <-- SCF
      3  -2.00044074E+004  9.74985239E+000   1.48596882E+000     185.84  <-- SCF
          Max force change        9.932E-001                             <-- SCF
      4  -2.00801875E+004  4.90760015E+000   5.41286517E+000     268.30  <-- SCF
          Max force change        6.444E+000                             <-- SCF
      5  -2.01369835E+004  3.58457641E+000   4.05685997E+000     321.98  <-- SCF
          Max force change        8.802E-001                             <-- SCF
      6  -2.01378555E+004  3.58460978E+000   6.22814100E-002     373.42  <-- SCF
          Max force change        2.013E-001                             <-- SCF
      7  -2.00991755E+004  3.56008912E+000  -2.76285372E+000     441.21  <-- SCF
          Max force change        3.051E+000                             <-- SCF
      8  -2.00992049E+004  3.56002776E+000   2.10067942E-003     493.15  <-- SCF
          Max force change        2.179E-002                             <-- SCF
      9  -2.00418138E+004  9.16043557E+000  -4.09936689E+000     561.03  <-- SCF
          Max force change        8.398E+000                             <-- SCF
     10  -2.00425065E+004  9.17575418E+000   4.94814221E-002     615.73  <-- SCF
          Max force change        3.201E-001                             <-- SCF
     11  -2.00601231E+004  5.75304411E+000   1.25832609E+000     685.91  <-- SCF
          Max force change        2.580E+000                             <-- SCF
     12  -2.00646432E+004  5.61207319E+000   3.22862684E-001     755.82  <-- SCF
          Max force change        2.333E+000                             <-- SCF
     13  -2.00658710E+004  5.42482856E+000   8.77037577E-002     824.97  <-- SCF
          Max force change        9.541E-001                             <-- SCF
     14  -2.00670856E+004  5.41442416E+000   8.67567963E-002     894.25  <-- SCF
          Max force change        1.363E+000                             <-- SCF
     15  -2.00674521E+004  5.57637574E+000   2.61756005E-002     964.97  <-- SCF
          Max force change        6.162E-001                             <-- SCF
     16  -2.00678354E+004  5.65921905E+000   2.73762133E-002    1036.52  <-- SCF
          Max force change        1.115E+000                             <-- SCF
     17  -2.00680953E+004  5.72355436E+000   1.85665214E-002    1108.17  <-- SCF
          Max force change        2.780E-001                             <-- SCF
     18  -2.00681792E+004  5.76828615E+000   5.99489304E-003    1179.43  <-- SCF
          Max force change        5.006E-001                             <-- SCF
     19  -2.00683190E+004  5.75944802E+000   9.98535512E-003    1250.86  <-- SCF
          Max force change        6.660E-002                             <-- SCF
     20  -2.00683353E+004  5.73000198E+000   1.16608723E-003    1321.26  <-- SCF
          Max force change        5.356E-002                             <-- SCF
     21  -2.00683439E+004  5.68168257E+000   6.12126714E-004    1391.92  <-- SCF
          Max force change        6.993E-002                             <-- SCF
     22  -2.00683445E+004  5.64075802E+000   4.08740783E-005    1462.19  <-- SCF
          Max force change        1.229E-001                             <-- SCF
     23  -2.00683521E+004  5.64896879E+000   5.48004561E-004    1531.67  <-- SCF
          Max force change        3.236E-002                             <-- SCF
     24  -2.00683559E+004  5.65938687E+000   2.66650725E-004    1601.14  <-- SCF
          Max force change        1.148E-002                             <-- SCF
     25  -2.00683569E+004  5.65857811E+000   7.00855087E-005    1670.38  <-- SCF
          Max force change        3.740E-002                             <-- SCF
     26  -2.00683573E+004  5.65506430E+000   2.97740812E-005    1740.62  <-- SCF
          Max force change        3.227E-002                             <-- SCF
     27  -2.00683574E+004  5.65407721E+000   9.67217409E-006    1811.37  <-- SCF
          Max force change        2.698E-003                             <-- SCF
     28  -2.00683575E+004  5.65374307E+000   6.80813905E-006    1880.89  <-- SCF
          Max force change        9.806E-004                             <-- SCF
     29  -2.00683575E+004  5.65399936E+000   1.18583347E-006    1950.84  <-- SCF
          Max force change        3.428E-003                             <-- SCF
     30  -2.00683575E+004  5.65394010E+000  -9.86850880E-010    2021.22  <-- SCF
          Max force change        5.162E-003                             <-- SCF
     31  -2.00683575E+004  5.65392606E+000   4.43638305E-007    2091.24  <-- SCF
          Max force change        5.296E-003                             <-- SCF
     32  -2.00683575E+004  5.65405270E+000   2.11512240E-007    2161.52  <-- SCF
          Max force change        8.497E-004                             <-- SCF
     33  -2.00683575E+004  5.65408813E+000   1.14207329E-007    2230.59  <-- SCF
          Max force change        1.809E-004                             <-- SCF
     34  -2.00683575E+004  5.65422380E+000   1.32201116E-007    2300.21  <-- SCF
          Max force change        6.422E-004                             <-- SCF
     35  -2.00683575E+004  5.65421084E+000  -4.57612874E-008    2370.60  <-- SCF
          Max force change        9.577E-004                             <-- SCF
     36  -2.00683575E+004  5.65429585E+000   7.47032416E-008    2438.82  <-- SCF
          Max force change        3.236E-004                             <-- SCF
     37  -2.00683575E+004  5.65438748E+000   7.77585903E-008    2507.02  <-- SCF
          Max force change        2.183E-004                             <-- SCF
     38  -2.00683575E+004  5.65440095E+000  -8.76432299E-009    2569.66  <-- SCF
          Max force change        3.219E-005                             <-- SCF
     39  -2.00683575E+004  5.65440134E+000   7.78144956E-009    2630.11  <-- SCF
          Max force change        4.155E-005                             <-- SCF
     40  -2.00683575E+004  5.65440876E+000   7.23963175E-009    2690.41  <-- SCF
          Max force change        2.505E-005                             <-- SCF
     41  -2.00683575E+004  5.65441224E+000   7.11522578E-010    2750.95  <-- SCF
          Max force change        2.843E-005                             <-- SCF
     42  -2.00683575E+004  5.65441549E+000   3.84045416E-010    2810.91  <-- SCF
          Max force change        2.672E-005                             <-- SCF
     43  -2.00683575E+004  5.65441574E+000  -1.94453375E-010    2870.87  <-- SCF
          Max force change        1.416E-005                             <-- SCF
     44  -2.00683575E+004  5.65441413E+000  -7.56600406E-010    2930.89  <-- SCF
          Max force change        9.842E-006                             <-- SCF
     45  -2.00683575E+004  5.65441381E+000   1.01646083E-010    2990.89  <-- SCF
          Max force change        1.943E-006                             <-- SCF
     46  -2.00683575E+004  5.65441359E+000   1.48933608E-010    3050.85  <-- SCF
          Max force change        2.964E-006                             <-- SCF
     47  -2.00683575E+004  5.65441318E+000   1.11147782E-010    3110.79  <-- SCF
          Max force change        3.279E-006                             <-- SCF
     48  -2.00683575E+004  5.65441311E+000  -4.13213423E-011    3170.63  <-- SCF
          Max force change        2.458E-006                             <-- SCF
     49  -2.00683575E+004  5.65441290E+000   8.88298374E-011    3230.92  <-- SCF
          Max force change        3.679E-006                             <-- SCF
------------------------------------------------------------------------ <-- SCF
 
Integrated Spin Density     =    0.446022E-06 hbar/2                        
Integrated |Spin Density|   =     1.03451     hbar/2                        
 
 
     Hubbard U occupation numbers
     ----------------------------
Species   Ion   l  spin               occupancies
==================================================================
  Cu       1    2   up:   0.95  0.99  1.00  1.00  1.00
                    dn:   0.70  0.99  1.00  1.00  1.00
  Cu       2    2   up:   0.70  0.99  1.00  1.00  1.00
                    dn:   0.95  0.99  1.00  1.00  1.00
==================================================================
 
Final energy, E             =  -20068.35753948     eV
Final free energy (E-TS)    =  -20068.35753948     eV
(energies not corrected for finite basis set)
 
NB est. 0K energy (E-0.5TS)      =  -20068.35753948     eV
 
Calculating total energy with cut-off of  811.342 eV.
 
 Pseudo atomic calculation performed for O 2s2 2p4
 
 Converged in 44 iterations to a total energy of -431.2467 eV
 
 Pseudo atomic calculation performed for Cu 3s2 3p6 3d10 4s1
 
 Converged in 104 iterations to a total energy of -5484.8323 eV
 
 Pseudo atomic calculation performed for La 5s2 5p6 5d1 6s2
 
 Converged in 37 iterations to a total energy of -1385.0358 eV
------------------------------------------------------------------------ <-- SCF
SCF loop      Energy           Fermi           Energy gain       Timer   <-- SCF
                               energy          per atom          (sec)   <-- SCF
------------------------------------------------------------------------ <-- SCF
Initial  -2.00683575E+004  0.00000000E+000                      3322.18  <-- SCF
      1  -2.00683584E+004  5.65439610E+000   6.20217612E-005    3348.24  <-- SCF
          Max force change        4.462E-001                             <-- SCF
      2  -2.00683585E+004  5.65439530E+000   5.02616213E-006    3415.54  <-- SCF
          Max force change        9.574E-006                             <-- SCF
      3  -2.00683585E+004  5.65439418E+000   1.34548478E-009    3480.22  <-- SCF
          Max force change        1.448E-005                             <-- SCF
      4  -2.00683585E+004  5.65439951E+000   2.06323870E-008    3545.89  <-- SCF
          Max force change        2.801E-005                             <-- SCF
      5  -2.00683585E+004  5.65440379E+000  -2.56165806E-008    3610.29  <-- SCF
          Max force change        1.541E-005                             <-- SCF
      6  -2.00683585E+004  5.65440409E+000   1.47024429E-008    3670.45  <-- SCF
          Max force change        8.498E-006                             <-- SCF
      7  -2.00683585E+004  5.65440255E+000  -4.28592917E-009    3730.48  <-- SCF
          Max force change        4.145E-006                             <-- SCF
      8  -2.00683585E+004  5.65440024E+000   1.65108593E-009    3790.53  <-- SCF
          Max force change        1.545E-006                             <-- SCF
      9  -2.00683585E+004  5.65439575E+000  -3.78079233E-009    3850.50  <-- SCF
          Max force change        2.176E-006                             <-- SCF
     10  -2.00683585E+004  5.65439324E+000  -1.04010459E-009    3910.35  <-- SCF
          Max force change        4.892E-006                             <-- SCF
     11  -2.00683585E+004  5.65439521E+000   1.13799419E-009    3970.38  <-- SCF
          Max force change        2.745E-006                             <-- SCF
     12  -2.00683585E+004  5.65439642E+000   1.21621748E-009    4030.15  <-- SCF
          Max force change        4.332E-007                             <-- SCF
     13  -2.00683585E+004  5.65439798E+000   9.27851958E-010    4090.02  <-- SCF
          Max force change        6.051E-007                             <-- SCF
     14  -2.00683585E+004  5.65440094E+000   6.39928381E-010    4149.93  <-- SCF
          Max force change        5.266E-006                             <-- SCF
     15  -2.00683585E+004  5.65440073E+000  -2.29366595E-010    4209.72  <-- SCF
          Max force change        2.481E-006                             <-- SCF
     16  -2.00683585E+004  5.65439958E+000  -8.14052540E-010    4269.45  <-- SCF
          Max force change        3.239E-007                             <-- SCF
     17  -2.00683585E+004  5.65439891E+000  -4.72875254E-011    4329.29  <-- SCF
          Max force change        5.873E-007                             <-- SCF
     18  -2.00683585E+004  5.65439815E+000   2.25389140E-011    4389.00  <-- SCF
          Max force change        1.723E-006                             <-- SCF
------------------------------------------------------------------------ <-- SCF
 
Integrated Spin Density     =    0.612220E-13 hbar/2                        
Integrated |Spin Density|   =     1.03453     hbar/2                        
 
 
     Hubbard U occupation numbers
     ----------------------------
Species   Ion   l  spin               occupancies
==================================================================
  Cu       1    2   up:   0.95  0.99  1.00  1.00  1.00
                    dn:   0.70  0.99  1.00  1.00  1.00
  Cu       2    2   up:   0.70  0.99  1.00  1.00  1.00
                    dn:   0.95  0.99  1.00  1.00  1.00
==================================================================
 
Final energy, E             =  -20068.35847824     eV
Final free energy (E-TS)    =  -20068.35847824     eV
(energies not corrected for finite basis set)
 
NB est. 0K energy (E-0.5TS)      =  -20068.35847824     eV
 
Calculating total energy with cut-off of  816.342 eV.
 
 Pseudo atomic calculation performed for O 2s2 2p4
 
 Converged in 44 iterations to a total energy of -431.2467 eV
 
 Pseudo atomic calculation performed for Cu 3s2 3p6 3d10 4s1
 
 Converged in 104 iterations to a total energy of -5484.8323 eV
 
 Pseudo atomic calculation performed for La 5s2 5p6 5d1 6s2
 
 Converged in 37 iterations to a total energy of -1385.0358 eV
------------------------------------------------------------------------ <-- SCF
SCF loop      Energy           Fermi           Energy gain       Timer   <-- SCF
                               energy          per atom          (sec)   <-- SCF
------------------------------------------------------------------------ <-- SCF
Initial  -2.00683585E+004  0.00000000E+000                      4480.31  <-- SCF
      1  -2.00683593E+004  5.65438108E+000   5.70399093E-005    4505.71  <-- SCF
          Max force change        4.462E-001                             <-- SCF
      2  -2.00683593E+004  5.65438086E+000   1.34226613E-006    4571.76  <-- SCF
          Max force change        7.267E-006                             <-- SCF
      3  -2.00683593E+004  5.65437991E+000  -2.05501863E-011    4635.69  <-- SCF
          Max force change        1.053E-005                             <-- SCF
      4  -2.00683593E+004  5.65438409E+000   1.67559148E-008    4700.27  <-- SCF
          Max force change        2.935E-005                             <-- SCF
      5  -2.00683593E+004  5.65438693E+000  -2.36090704E-008    4763.40  <-- SCF
          Max force change        1.217E-005                             <-- SCF
      6  -2.00683593E+004  5.65438703E+000   1.44520842E-008    4823.18  <-- SCF
          Max force change        7.020E-006                             <-- SCF
      7  -2.00683593E+004  5.65438598E+000  -3.17931269E-009    4883.03  <-- SCF
          Max force change        3.528E-006                             <-- SCF
      8  -2.00683593E+004  5.65438403E+000   2.04153947E-009    4942.69  <-- SCF
          Max force change        1.458E-006                             <-- SCF
      9  -2.00683593E+004  5.65438027E+000  -3.08164406E-009    5002.26  <-- SCF
          Max force change        2.182E-006                             <-- SCF
     10  -2.00683593E+004  5.65437785E+000  -1.65329563E-009    5061.83  <-- SCF
          Max force change        3.530E-006                             <-- SCF
     11  -2.00683593E+004  5.65437957E+000   8.21344541E-010    5121.38  <-- SCF
          Max force change        2.511E-006                             <-- SCF
     12  -2.00683593E+004  5.65438070E+000   1.15036849E-009    5180.86  <-- SCF
          Max force change        6.900E-007                             <-- SCF
     13  -2.00683593E+004  5.65438218E+000   8.83878979E-010    5240.69  <-- SCF
          Max force change        5.561E-007                             <-- SCF
     14  -2.00683593E+004  5.65438498E+000   7.99910476E-010    5300.01  <-- SCF
          Max force change        4.220E-006                             <-- SCF
     15  -2.00683593E+004  5.65438481E+000  -1.53353003E-010    5359.98  <-- SCF
          Max force change        2.160E-006                             <-- SCF
     16  -2.00683593E+004  5.65438369E+000  -8.58246489E-010    5419.45  <-- SCF
          Max force change        2.473E-007                             <-- SCF
     17  -2.00683593E+004  5.65438301E+000  -1.02088022E-010    5479.33  <-- SCF
          Max force change        5.104E-007                             <-- SCF
     18  -2.00683593E+004  5.65438218E+000  -8.22007451E-011    5539.12  <-- SCF
          Max force change        1.581E-006                             <-- SCF
     19  -2.00683593E+004  5.65438196E+000   2.75991211E-010    5598.60  <-- SCF
          Max force change        2.006E-006                             <-- SCF
     20  -2.00683593E+004  5.65438230E+000   8.81669282E-011    5658.11  <-- SCF
          Max force change        3.540E-007                             <-- SCF
     21  -2.00683593E+004  5.65438264E+000  -1.02088022E-010    5717.61  <-- SCF
          Max force change        1.824E-007                             <-- SCF
     22  -2.00683593E+004  5.65438274E+000  -8.86088677E-011    5776.76  <-- SCF
          Max force change        3.109E-007                             <-- SCF
     23  -2.00683593E+004  5.65438272E+000   3.53551592E-012    5836.27  <-- SCF
          Max force change        3.122E-007                             <-- SCF
------------------------------------------------------------------------ <-- SCF
 
Integrated Spin Density     =   -0.940946E-13 hbar/2                        
Integrated |Spin Density|   =     1.03456     hbar/2                        
 
 
     Hubbard U occupation numbers
     ----------------------------
Species   Ion   l  spin               occupancies
==================================================================
  Cu       1    2   up:   0.95  0.99  1.00  1.00  1.00
                    dn:   0.70  0.99  1.00  1.00  1.00
  Cu       2    2   up:   0.70  0.99  1.00  1.00  1.00
                    dn:   0.95  0.99  1.00  1.00  1.00
==================================================================
 
Final energy, E             =  -20068.35929566     eV
Final free energy (E-TS)    =  -20068.35929566     eV
(energies not corrected for finite basis set)
 
NB est. 0K energy (E-0.5TS)      =  -20068.35929566     eV
 
 For future reference: finite basis dEtot/dlog(Ecut) =      -0.141020eV
 Total energy corrected for finite basis set =  -20068.359299 eV
 
+---------------- MEMORY AND SCRATCH DISK ESTIMATES PER PROCESS --------------+
|                                                     Memory          Disk    |
|                                               ----------------------------- |
| Approx. total storage required per process         1983.8 MB         0.0 MB |
|                                                                             |
| Requirements will fluctuate during execution and may exceed these estimates |
+-----------------------------------------------------------------------------+
 
  =====================================================================
  +                                                                   +
  +                 Calculation of Spectral Properties                +
  +                                                                   +
  + Calculation re-parallelised over 30 processes.                    +
  + Data distributed by G-vector(1-way), k-point(30-way), band(1-way) +
  + Data distributed by k-point(30-way)                               +
  +                                                                   +
  =====================================================================
 
 Pseudo atomic calculation performed for O 2s2 2p4
 
 Converged in 44 iterations to a total energy of -431.2467 eV
 
 Pseudo atomic calculation performed for Cu 3s2 3p6 3d10 4s1
 
 Converged in 104 iterations to a total energy of -5484.8323 eV
 
 Pseudo atomic calculation performed for La 5s2 5p6 5d1 6s2
 
 Converged in 37 iterations to a total energy of -1385.0358 eV
 
 Pseudo atomic calculation performed for O 2s2 2p4
 
 Converged in 44 iterations to a total energy of -431.2467 eV
 
 Pseudo atomic calculation performed for Cu 3s2 3p6 3d10 4s1
 
 Converged in 104 iterations to a total energy of -5484.8323 eV
 
 Pseudo atomic calculation performed for La 5s2 5p6 5d1 6s2
 
 Converged in 37 iterations to a total energy of -1385.0358 eV
  Starting k-point:        1 of        8 on this process      |<-- SPEC
  Starting k-point:        2 of        8 on this process      |<-- SPEC
  Starting k-point:        3 of        8 on this process      |<-- SPEC
  Starting k-point:        4 of        8 on this process      |<-- SPEC
  Starting k-point:        5 of        8 on this process      |<-- SPEC
  Starting k-point:        6 of        8 on this process      |<-- SPEC
  Starting k-point:        7 of        8 on this process      |<-- SPEC
  Starting k-point:        8 of        8 on this process      |<-- SPEC
  Starting k-point:        1 of        8 on this process      |<-- SPEC
  Starting k-point:        2 of        8 on this process      |<-- SPEC
  Starting k-point:        3 of        8 on this process      |<-- SPEC
  Starting k-point:        4 of        8 on this process      |<-- SPEC
  Starting k-point:        5 of        8 on this process      |<-- SPEC
  Starting k-point:        6 of        8 on this process      |<-- SPEC
  Starting k-point:        7 of        8 on this process      |<-- SPEC
  Starting k-point:        8 of        8 on this process      |<-- SPEC
  Total time to compute matrix elements           2233.99 sec |<-- SPEC
  
  + Calculation re-parallelised over 30 processes.                    +
  + Data distributed by k-point(30-way)                               +
 
 Pseudo atomic calculation performed for O 2s2 2p4
 
 Converged in 44 iterations to a total energy of -431.2467 eV
 
 Pseudo atomic calculation performed for Cu 3s2 3p6 3d10 4s1
 
 Converged in 104 iterations to a total energy of -5484.8323 eV
 
 Pseudo atomic calculation performed for La 5s2 5p6 5d1 6s2
 
 Converged in 37 iterations to a total energy of -1385.0358 eV
 
 ******************** Symmetrised Forces ********************
 *                                                          *
 *               Cartesian components (eV/A)                *
 * -------------------------------------------------------- *
 *                         x            y            z      *
 *                                                          *
 * O               1     -0.00000     -0.00000     -0.02568 *
 * O               2      0.00000      0.00000      0.02568 *
 * O               3      0.00000     -0.00000     -0.02568 *
 * O               4     -0.00000      0.00000      0.02568 *
 * O               5     -0.00000      0.11447      0.24431 *
 * O               6      0.00000     -0.11447     -0.24431 *
 * O               7      0.00000     -0.11447      0.24431 *
 * O               8     -0.00000      0.11447     -0.24431 *
 * Cu              1      0.00000      0.00000     -0.00000 *
 * Cu              2      0.00000      0.00000     -0.00000 *
 * La              1      0.00000     -0.12368     -0.05343 *
 * La              2     -0.00000      0.12368      0.05343 *
 * La              3     -0.00000      0.12368     -0.05343 *
 * La              4      0.00000     -0.12368      0.05343 *
 *                                                          *
 ************************************************************
 
 Pseudo atomic calculation performed for O 2s2 2p4
 
 Converged in 44 iterations to a total energy of -431.2467 eV
 
 Pseudo atomic calculation performed for Cu 3s2 3p6 3d10 4s1
 
 Converged in 104 iterations to a total energy of -5484.8323 eV
 
 Pseudo atomic calculation performed for La 5s2 5p6 5d1 6s2
 
 Converged in 37 iterations to a total energy of -1385.0358 eV
 
 *********** Symmetrised Stress Tensor ***********
 *                                               *
 *          Cartesian components (GPa)           *
 * --------------------------------------------- *
 *             x             y             z     *
 *                                               *
 *  x      2.320570      0.000000     -0.000000  *
 *  y      0.000000      2.116197      0.000000  *
 *  z     -0.000000      0.000000      2.916410  *
 *                                               *
 *  Pressure:   -2.4511                          *
 *                                               *
 *************************************************
 
 Pseudo atomic calculation performed for O 2s2 2p4
 
 Converged in 44 iterations to a total energy of -431.2467 eV
 
 Pseudo atomic calculation performed for Cu 3s2 3p6 3d10 4s1
 
 Converged in 104 iterations to a total energy of -5484.8323 eV
 
 Pseudo atomic calculation performed for La 5s2 5p6 5d1 6s2
 
 Converged in 37 iterations to a total energy of -1385.0358 eV
Charge spilling parameter for spin component 1 = 0.12%
Charge spilling parameter for spin component 2 = 0.12%
 
                   Orbital Populations                  
  ---------------------------------------------------------------
     Ion    Atom   Orbital              Up        Down      Spin
  ---------------------------------------------------------------
      O     1      S                    0.920     0.920     0.000
      O     1      Px                   0.788     0.788     0.000
      O     1      Py                   0.785     0.785     0.000
      O     1      Pz                   0.839     0.839    -0.000
      O     2      S                    0.920     0.920     0.000
      O     2      Px                   0.788     0.788     0.000
      O     2      Py                   0.785     0.785     0.000
      O     2      Pz                   0.839     0.839     0.000
      O     3      S                    0.920     0.920     0.000
      O     3      Px                   0.787     0.787    -0.000
      O     3      Py                   0.783     0.783    -0.000
      O     3      Pz                   0.839     0.839     0.000
      O     4      S                    0.920     0.920     0.000
      O     4      Px                   0.787     0.787    -0.000
      O     4      Py                   0.783     0.783    -0.000
      O     4      Pz                   0.839     0.839     0.000
      O     5      S                    0.934     0.935    -0.001
      O     5      Px                   0.806     0.807    -0.001
      O     5      Py                   0.808     0.809    -0.001
      O     5      Pz                   0.804     0.815    -0.010
      O     6      S                    0.934     0.935    -0.001
      O     6      Px                   0.806     0.807    -0.001
      O     6      Py                   0.808     0.809    -0.001
      O     6      Pz                   0.804     0.815    -0.010
      O     7      S                    0.935     0.934     0.001
      O     7      Px                   0.807     0.806     0.001
      O     7      Py                   0.809     0.808     0.001
      O     7      Pz                   0.815     0.804     0.010
      O     8      S                    0.935     0.934     0.001
      O     8      Px                   0.807     0.806     0.001
      O     8      Py                   0.809     0.808     0.001
      O     8      Pz                   0.815     0.804     0.010
     Cu     1      S                    0.999     0.999    -0.000
     Cu     1      Px                   0.999     1.000    -0.000
     Cu     1      Py                   0.999     0.999    -0.000
     Cu     1      Pz                   0.999     1.000    -0.000
     Cu     1      Dzz                  0.982     0.986    -0.004
     Cu     1      Dzy                  0.995     0.995     0.001
     Cu     1      Dzx                  0.994     0.991     0.003
     Cu     1      Dxx-yy               0.998     0.998     0.001
     Cu     1      Dxy                  0.935     0.624     0.310
     Cu     1      S                    0.246     0.276    -0.029
     Cu     1      Px                   0.122     0.130    -0.008
     Cu     1      Py                   0.121     0.129    -0.008
     Cu     1      Pz                   0.136     0.137    -0.001
     Cu     2      S                    0.999     0.999     0.000
     Cu     2      Px                   1.000     0.999     0.000
     Cu     2      Py                   0.999     0.999     0.000
     Cu     2      Pz                   1.000     0.999     0.000
     Cu     2      Dzz                  0.986     0.982     0.004
     Cu     2      Dzy                  0.995     0.995    -0.001
     Cu     2      Dzx                  0.991     0.994    -0.003
     Cu     2      Dxx-yy               0.998     0.998    -0.001
     Cu     2      Dxy                  0.624     0.935    -0.310
     Cu     2      S                    0.276     0.246     0.029
     Cu     2      Px                   0.130     0.122     0.008
     Cu     2      Py                   0.129     0.121     0.008
     Cu     2      Pz                   0.137     0.136     0.001
     La     1      S                    1.011     1.011     0.000
     La     1      Px                   1.024     1.024     0.000
     La     1      Py                   1.021     1.021    -0.000
     La     1      Pz                   1.015     1.015     0.000
     La     1      Fxxx                 0.020     0.020    -0.000
     La     1      Fyyy                 0.021     0.021     0.000
     La     1      Fzzz                 0.022     0.022    -0.000
     La     1      Fxyz                 0.017     0.017    -0.000
     La     1      Fz(xx-yy)            0.012     0.012    -0.000
     La     1      Fy(zz-xx)            0.012     0.012     0.000
     La     1      Fx(yy-zz)            0.011     0.011    -0.000
     La     1      S                    0.100     0.100    -0.001
     La     1      Dzz                  0.142     0.143    -0.001
     La     1      Dzy                  0.121     0.121    -0.000
     La     1      Dzx                  0.115     0.115     0.000
     La     1      Dxx-yy               0.120     0.120     0.000
     La     1      Dxy                  0.093     0.093    -0.000
     La     1      Px                  -0.001    -0.007     0.006
     La     1      Py                  -0.009    -0.004    -0.005
     La     1      Pz                  -0.004    -0.002    -0.002
     La     2      S                    1.011     1.011     0.000
     La     2      Px                   1.024     1.024     0.000
     La     2      Py                   1.021     1.021    -0.000
     La     2      Pz                   1.015     1.015     0.000
     La     2      Fxxx                 0.020     0.020    -0.000
     La     2      Fyyy                 0.021     0.021     0.000
     La     2      Fzzz                 0.022     0.022    -0.000
     La     2      Fxyz                 0.017     0.017    -0.000
     La     2      Fz(xx-yy)            0.012     0.012    -0.000
     La     2      Fy(zz-xx)            0.012     0.012     0.000
     La     2      Fx(yy-zz)            0.011     0.011    -0.000
     La     2      S                    0.100     0.100    -0.001
     La     2      Dzz                  0.142     0.143    -0.001
     La     2      Dzy                  0.121     0.121    -0.000
     La     2      Dzx                  0.115     0.115     0.000
     La     2      Dxx-yy               0.120     0.120     0.000
     La     2      Dxy                  0.093     0.093    -0.000
     La     2      Px                  -0.001    -0.007     0.006
     La     2      Py                  -0.009    -0.004    -0.005
     La     2      Pz                  -0.004    -0.002    -0.002
     La     3      S                    1.011     1.011    -0.000
     La     3      Px                   1.024     1.024    -0.000
     La     3      Py                   1.021     1.021     0.000
     La     3      Pz                   1.015     1.015    -0.000
     La     3      Fxxx                 0.020     0.020     0.000
     La     3      Fyyy                 0.021     0.021    -0.000
     La     3      Fzzz                 0.022     0.022     0.000
     La     3      Fxyz                 0.017     0.017     0.000
     La     3      Fz(xx-yy)            0.012     0.012     0.000
     La     3      Fy(zz-xx)            0.012     0.012    -0.000
     La     3      Fx(yy-zz)            0.011     0.011     0.000
     La     3      S                    0.100     0.100     0.001
     La     3      Dzz                  0.143     0.142     0.001
     La     3      Dzy                  0.121     0.121     0.000
     La     3      Dzx                  0.115     0.115    -0.000
     La     3      Dxx-yy               0.120     0.120    -0.000
     La     3      Dxy                  0.093     0.093     0.000
     La     3      Px                  -0.007    -0.001    -0.006
     La     3      Py                  -0.004    -0.009     0.005
     La     3      Pz                  -0.002    -0.004     0.002
     La     4      S                    1.011     1.011    -0.000
     La     4      Px                   1.024     1.024    -0.000
     La     4      Py                   1.021     1.021     0.000
     La     4      Pz                   1.015     1.015    -0.000
     La     4      Fxxx                 0.020     0.020     0.000
     La     4      Fyyy                 0.021     0.021    -0.000
     La     4      Fzzz                 0.022     0.022     0.000
     La     4      Fxyz                 0.017     0.017     0.000
     La     4      Fz(xx-yy)            0.012     0.012     0.000
     La     4      Fy(zz-xx)            0.012     0.012    -0.000
     La     4      Fx(yy-zz)            0.011     0.011     0.000
     La     4      S                    0.100     0.100     0.001
     La     4      Dzz                  0.143     0.142     0.001
     La     4      Dzy                  0.121     0.121     0.000
     La     4      Dzx                  0.115     0.115    -0.000
     La     4      Dxx-yy               0.120     0.120    -0.000
     La     4      Dxy                  0.093     0.093     0.000
     La     4      Px                  -0.007    -0.001    -0.006
     La     4      Py                  -0.004    -0.009     0.005
     La     4      Pz                  -0.002    -0.004     0.002
  ---------------------------------------------------------------
                           Total:      65.000    65.000     0.000
  ---------------------------------------------------------------
 
     Atomic Populations (Mulliken)
     -----------------------------
Species          Ion Spin      s      p      d      f     Total  Charge(e)   Spin(hbar/2)
=========================================================================================
  O               1   up:     0.92   2.41   0.00   0.00   3.33    -0.66        0.00
                  1   dn:     0.92   2.41   0.00   0.00   3.33
  O               2   up:     0.92   2.41   0.00   0.00   3.33    -0.66        0.00
                  2   dn:     0.92   2.41   0.00   0.00   3.33
  O               3   up:     0.92   2.41   0.00   0.00   3.33    -0.66        0.00
                  3   dn:     0.92   2.41   0.00   0.00   3.33
  O               4   up:     0.92   2.41   0.00   0.00   3.33    -0.66        0.00
                  4   dn:     0.92   2.41   0.00   0.00   3.33
  O               5   up:     0.93   2.42   0.00   0.00   3.35    -0.72       -0.01
                  5   dn:     0.93   2.43   0.00   0.00   3.37
  O               6   up:     0.93   2.42   0.00   0.00   3.35    -0.72       -0.01
                  6   dn:     0.93   2.43   0.00   0.00   3.37
  O               7   up:     0.93   2.43   0.00   0.00   3.37    -0.72        0.01
                  7   dn:     0.93   2.42   0.00   0.00   3.35
  O               8   up:     0.93   2.43   0.00   0.00   3.37    -0.72        0.01
                  8   dn:     0.93   2.42   0.00   0.00   3.35
  Cu              1   up:     1.25   3.38   4.90   0.00   9.53     0.21        0.26
                  1   dn:     1.27   3.39   4.59   0.00   9.26
  Cu              2   up:     1.27   3.39   4.59   0.00   9.26     0.21       -0.26
                  2   dn:     1.25   3.38   4.90   0.00   9.53
  La              1   up:     1.11   3.05   0.59   0.11   4.86     1.27       -0.00
                  1   dn:     1.11   3.05   0.59   0.11   4.87
  La              2   up:     1.11   3.05   0.59   0.11   4.86     1.27       -0.00
                  2   dn:     1.11   3.05   0.59   0.11   4.87
  La              3   up:     1.11   3.05   0.59   0.11   4.87     1.27        0.00
                  3   dn:     1.11   3.05   0.59   0.11   4.86
  La              4   up:     1.11   3.05   0.59   0.11   4.87     1.27        0.00
                  4   dn:     1.11   3.05   0.59   0.11   4.86
=========================================================================================
 
                 Bond                   Population        Spin       Length (A)
================================================================================
               O 4 -- Cu 2                   0.35         0.02          1.90349
               O 4 -- Cu 1                   0.35        -0.02          1.90349
               O 3 -- Cu 2                   0.35         0.02          1.90349
               O 3 -- Cu 1                   0.35        -0.02          1.90349
               O 2 -- Cu 2                   0.35         0.02          1.90349
               O 2 -- Cu 1                   0.35        -0.02          1.90349
               O 1 -- Cu 2                   0.35         0.02          1.90349
               O 1 -- Cu 1                   0.35        -0.02          1.90349
               O 6 -- La 2                   0.37        -0.00          2.34840
               O 5 -- La 1                   0.37        -0.00          2.34840
               O 8 -- La 4                   0.37         0.00          2.34840
               O 7 -- La 3                   0.37         0.00          2.34840
               O 8 -- Cu 2                   0.05        -0.01          2.41954
               O 7 -- Cu 2                   0.05        -0.01          2.41954
               O 6 -- Cu 1                   0.05         0.01          2.41954
               O 5 -- Cu 1                   0.05         0.01          2.41954
               O 8 -- La 1                   0.31         0.00          2.51491
               O 7 -- La 2                   0.31         0.00          2.51491
               O 6 -- La 3                   0.31        -0.00          2.51491
               O 5 -- La 4                   0.31        -0.00          2.51491
               O 4 -- La 4                   0.09        -0.00          2.57733
               O 3 -- La 3                   0.09        -0.00          2.57733
               O 2 -- La 4                   0.09        -0.00          2.57733
               O 2 -- La 2                   0.09         0.00          2.57733
               O 1 -- La 3                   0.09        -0.00          2.57733
               O 4 -- La 2                   0.09         0.00          2.57733
               O 3 -- La 1                   0.09         0.00          2.57733
               O 1 -- La 1                   0.09         0.00          2.57733
               O 2 -- O 4                   -0.08        -0.00          2.66730
               O 1 -- O 3                   -0.08        -0.00          2.66730
               O 4 -- La 3                   0.04         0.00          2.68317
               O 3 -- La 4                   0.04         0.00          2.68317
               O 2 -- La 3                   0.04         0.00          2.68317
               O 1 -- La 4                   0.04         0.00          2.68317
               O 3 -- La 2                   0.04        -0.00          2.68317
               O 2 -- La 1                   0.04        -0.00          2.68317
               O 1 -- La 2                   0.04        -0.00          2.68317
               O 4 -- La 1                   0.04        -0.00          2.68317
               O 2 -- O 3                   -0.07        -0.00          2.71635
               O 1 -- O 4                   -0.07        -0.00          2.71635
               O 6 -- La 1                   0.31        -0.00          2.73821
               O 5 -- La 2                   0.31        -0.00          2.73821
               O 8 -- La 3                   0.31         0.00          2.73821
               O 7 -- La 4                   0.31         0.00          2.73821
================================================================================
 

Writing analysis data to La2CuO4_LTO.castep_bin

Writing model to La2CuO4_LTO.check
Initialisation time =      3.00 s
Calculation time    =   8727.41 s
Finalisation time   =      1.59 s
Total time          =   8732.00 s
Peak Memory Use     = 6414836 kB
  
Overall parallel efficiency rating: Excellent (97%)                             
  
Data was distributed by:-
k-point (30-way); efficiency rating: Excellent (98%)                            
